 Entering Gaussian System, Link 0=/apl/gaussian/16c02/g16/._.g16
 Initial command:
 /apl/gaussian/16c02/g16/l1.exe "/lwork/users/sw6/8048305.ccpbs1/gaussian/Gau-3289591.inp" -scrdir="/lwork/users/sw6/8048305.ccpbs1/gaussian/"
 Default CPUs for threads: 120,121,122,123,124,125,126,127
 Default is to use a total of   8 processors:
                                8 via shared-memory
                                1 via Linda
 Entering Link 1 = /apl/gaussian/16c02/g16/l1.exe PID=   3289652.
  
 Copyright (c) 1988-2021, Gaussian, Inc.  All Rights Reserved.
  
 This is part of the Gaussian(R) 16 program.  It is based on
 the Gaussian(R) 09 system (copyright 2009, Gaussian, Inc.),
 the Gaussian(R) 03 system (copyright 2003, Gaussian, Inc.),
 the Gaussian(R) 98 system (copyright 1998, Gaussian, Inc.),
 the Gaussian(R) 94 system (copyright 1995, Gaussian, Inc.),
 the Gaussian 92(TM) system (copyright 1992, Gaussian, Inc.),
 the Gaussian 90(TM) system (copyright 1990, Gaussian, Inc.),
 the Gaussian 88(TM) system (copyright 1988, Gaussian, Inc.),
 the Gaussian 86(TM) system (copyright 1986, Carnegie Mellon
 University), and the Gaussian 82(TM) system (copyright 1983,
 Carnegie Mellon University). Gaussian is a federally registered
 trademark of Gaussian, Inc.
  
 This software contains proprietary and confidential information,
 including trade secrets, belonging to Gaussian, Inc.
  
 This software is provided under written license and may be
 used, copied, transmitted, or stored only in accord with that
 written license.
  
 The following legend is applicable only to US Government
 contracts under FAR:
  
                    RESTRICTED RIGHTS LEGEND
  
 Use, reproduction and disclosure by the US Government is
 subject to restrictions as set forth in subparagraphs (a)
 and (c) of the Commercial Computer Software - Restricted
 Rights clause in FAR 52.227-19.
  
 Gaussian, Inc.
 340 Quinnipiac St., Bldg. 40, Wallingford CT 06492
  
  
 ---------------------------------------------------------------
 Warning -- This program may not be used in any manner that
 competes with the business of Gaussian, Inc. or will provide
 assistance to any competitor of Gaussian, Inc.  The licensee
 of this program is prohibited from giving any competitor of
 Gaussian, Inc. access to this program.  By using this program,
 the user acknowledges that Gaussian, Inc. is engaged in the
 business of creating and licensing software in the field of
 computational chemistry and represents and warrants to the
 licensee that it is not a competitor of Gaussian, Inc. and that
 it will not use this program in any manner prohibited above.
 ---------------------------------------------------------------
  

 Cite this work as:
 Gaussian 16, Revision C.02,
 M. J. Frisch, G. W. Trucks, H. B. Schlegel, G. E. Scuseria, 
 M. A. Robb, J. R. Cheeseman, G. Scalmani, V. Barone, 
 G. A. Petersson, H. Nakatsuji, X. Li, M. Caricato, A. V. Marenich, 
 J. Bloino, B. G. Janesko, R. Gomperts, B. Mennucci, H. P. Hratchian, 
 J. V. Ortiz, A. F. Izmaylov, J. L. Sonnenberg, D. Williams-Young, 
 F. Ding, F. Lipparini, F. Egidi, J. Goings, B. Peng, A. Petrone, 
 T. Henderson, D. Ranasinghe, V. G. Zakrzewski, J. Gao, N. Rega, 
 G. Zheng, W. Liang, M. Hada, M. Ehara, K. Toyota, R. Fukuda, 
 J. Hasegawa, M. Ishida, T. Nakajima, Y. Honda, O. Kitao, H. Nakai, 
 T. Vreven, K. Throssell, J. A. Montgomery, Jr., J. E. Peralta, 
 F. Ogliaro, M. J. Bearpark, J. J. Heyd, E. N. Brothers, K. N. Kudin, 
 V. N. Staroverov, T. A. Keith, R. Kobayashi, J. Normand, 
 K. Raghavachari, A. P. Rendell, J. C. Burant, S. S. Iyengar, 
 J. Tomasi, M. Cossi, J. M. Millam, M. Klene, C. Adamo, R. Cammi, 
 J. W. Ochterski, R. L. Martin, K. Morokuma, O. Farkas, 
 J. B. Foresman, and D. J. Fox, Gaussian, Inc., Wallingford CT, 2019.
 
 ******************************************
 Gaussian 16:  ES64L-G16RevC.02  7-Dec-2021
                19-Jan-2025 
 ******************************************
 %mem=9600MB
 SetSPE:  set environment variable "OMP_PROC_BIND" = "true"
 SetSPE:  set environment variable "OMP_PLACES" = "{120},{121},{122},{123},{124},{125},{126},{127}"
 ------------------
 #P HF/6-31G(d) Opt
 ------------------
 1/18=20,19=15,38=1/1,3;
 2/9=110,12=2,17=6,18=5,40=1/2;
 3/5=1,6=6,7=1,11=9,25=1,30=1,71=1/1,2,3;
 4//1;
 5/5=2,38=5/2;
 6/7=2,8=2,9=2,10=2,28=1/1;
 7//1,2,3,16;
 1/18=20,19=15/3(2);
 2/9=110/2;
 99//99;
 2/9=110/2;
 3/5=1,6=6,7=1,11=9,25=1,30=1,71=1/1,2,3;
 4/5=5,16=3,69=1/1;
 5/5=2,38=5/2;
 7//1,2,3,16;
 1/18=20,19=15/3(-5);
 2/9=110/2;
 6/7=2,8=2,9=2,10=2,19=2,28=1/1;
 99/9=1/99;
 Leave Link    1 at Sun Jan 19 22:46:46 2025, MaxMem=  1258291200 cpu:               0.1 elap:               0.0
 (Enter /apl/gaussian/16c02/g16/l101.exe)
 -----
 water
 -----
 Symbolic Z-matrix:
 Charge =  0 Multiplicity = 1
 O                     0.       -0.02899   0. 
 H                    -0.78045   0.54109   0. 
 H                     0.78045   0.54109   0. 
 
 ITRead=  0  0  0
 MicOpt= -1 -1 -1
 NAtoms=      3 NQM=        3 NQMF=       0 NMMI=      0 NMMIF=      0
                NMic=       0 NMicF=      0.
                    Isotopes and Nuclear Properties:
 (Nuclear quadrupole moments (NQMom) in fm**2, nuclear magnetic moments (NMagM)
  in nuclear magnetons)

  Atom         1           2           3
 IAtWgt=          16           1           1
 AtmWgt=  15.9949146   1.0078250   1.0078250
 NucSpn=           0           1           1
 AtZEff=  -0.0000000  -0.0000000  -0.0000000
 NQMom=    0.0000000   0.0000000   0.0000000
 NMagM=    0.0000000   2.7928460   2.7928460
 AtZNuc=   8.0000000   1.0000000   1.0000000
 Leave Link  101 at Sun Jan 19 22:46:46 2025, MaxMem=  1258291200 cpu:               0.1 elap:               0.2
 (Enter /apl/gaussian/16c02/g16/l103.exe)

 GradGradGradGradGradGradGradGradGradGradGradGradGradGradGradGradGradGrad
 Berny optimization.
 Initialization pass.
                           ----------------------------
                           !    Initial Parameters    !
                           ! (Angstroms and Degrees)  !
 --------------------------                            --------------------------
 ! Name  Definition              Value          Derivative Info.                !
 --------------------------------------------------------------------------------
 ! R1    R(1,2)                  0.9665         estimate D2E/DX2                !
 ! R2    R(1,3)                  0.9665         estimate D2E/DX2                !
 ! A1    A(2,1,3)              107.7076         estimate D2E/DX2                !
 --------------------------------------------------------------------------------
 Trust Radius=3.00D-01 FncErr=1.00D-07 GrdErr=1.00D-07 EigMax=2.50D+02 EigMin=1.00D-04
 Number of steps in this run=     20 maximum allowed number of steps=    100.
 GradGradGradGradGradGradGradGradGradGradGradGradGradGradGradGradGradGrad

 Leave Link  103 at Sun Jan 19 22:46:46 2025, MaxMem=  1258291200 cpu:               0.0 elap:               0.0
 (Enter /apl/gaussian/16c02/g16/l202.exe)
                          Input orientation:                          
 ---------------------------------------------------------------------
 Center     Atomic      Atomic             Coordinates (Angstroms)
 Number     Number       Type             X           Y           Z
 ---------------------------------------------------------------------
      1          8           0        0.000000   -0.028988    0.000000
      2          1           0       -0.780454    0.541094    0.000000
      3          1           0        0.780454    0.541094    0.000000
 ---------------------------------------------------------------------
                    Distance matrix (angstroms):
                    1          2          3
     1  O    0.000000
     2  H    0.966489   0.000000
     3  H    0.966489   1.560908   0.000000
 Stoichiometry    H2O
 Framework group  C2V[C2(O),SGV(H2)]
 Deg. of freedom     2
 Full point group                 C2V     NOp   4
 Largest Abelian subgroup         C2V     NOp   4
 Largest concise Abelian subgroup C2      NOp   2
                         Standard orientation:                         
 ---------------------------------------------------------------------
 Center     Atomic      Atomic             Coordinates (Angstroms)
 Number     Number       Type             X           Y           Z
 ---------------------------------------------------------------------
      1          8           0        0.000000    0.000000    0.114016
      2          1           0       -0.000000    0.780454   -0.456065
      3          1           0       -0.000000   -0.780454   -0.456065
 ---------------------------------------------------------------------
 Rotational constants (GHZ):         868.7079391         411.6301923         279.2906087
 Leave Link  202 at Sun Jan 19 22:46:46 2025, MaxMem=  1258291200 cpu:               0.1 elap:               0.1
 (Enter /apl/gaussian/16c02/g16/l301.exe)
 Standard basis: 6-31G(d) (6D, 7F)
 Ernie: Thresh=  0.10000D-02 Tol=  0.10000D-05 Strict=F.
 There are    10 symmetry adapted cartesian basis functions of A1  symmetry.
 There are     1 symmetry adapted cartesian basis functions of A2  symmetry.
 There are     3 symmetry adapted cartesian basis functions of B1  symmetry.
 There are     5 symmetry adapted cartesian basis functions of B2  symmetry.
 There are    10 symmetry adapted basis functions of A1  symmetry.
 There are     1 symmetry adapted basis functions of A2  symmetry.
 There are     3 symmetry adapted basis functions of B1  symmetry.
 There are     5 symmetry adapted basis functions of B2  symmetry.
    19 basis functions,    36 primitive gaussians,    19 cartesian basis functions
     5 alpha electrons        5 beta electrons
       nuclear repulsion energy         9.0994216549 Hartrees.
 IExCor=    0 DFT=F Ex=HF Corr=None ExCW=0 ScaHFX=  1.000000
 ScaDFX=  1.000000  1.000000  1.000000  1.000000 ScalE2=  1.000000  1.000000
 IRadAn=      5 IRanWt=     -1 IRanGd=            0 ICorTp=0 IEmpDi=  4
 NAtoms=    3 NActive=    3 NUniq=    2 SFac= 2.25D+00 NAtFMM=   60 NAOKFM=F Big=F
 Integral buffers will be    131072 words long.
 Raffenetti 1 integral format.
 Two-electron integral symmetry is turned on.
 Leave Link  301 at Sun Jan 19 22:46:46 2025, MaxMem=  1258291200 cpu:               0.1 elap:               0.0
 (Enter /apl/gaussian/16c02/g16/l302.exe)
 NPDir=0 NMtPBC=     1 NCelOv=     1 NCel=       1 NClECP=     1 NCelD=      1
         NCelK=      1 NCelE2=     1 NClLst=     1 CellRange=     0.0.
 One-electron integrals computed using PRISM.
 One-electron integral symmetry used in STVInt
 NBasis=    19 RedAO= T EigKep=  2.27D-02  NBF=    10     1     3     5
 NBsUse=    19 1.00D-06 EigRej= -1.00D+00 NBFU=    10     1     3     5
 Leave Link  302 at Sun Jan 19 22:46:46 2025, MaxMem=  1258291200 cpu:               0.3 elap:               0.1
 (Enter /apl/gaussian/16c02/g16/l303.exe)
 DipDrv:  MaxL=1.
 Leave Link  303 at Sun Jan 19 22:46:46 2025, MaxMem=  1258291200 cpu:               0.1 elap:               0.0
 (Enter /apl/gaussian/16c02/g16/l401.exe)
 ExpMin= 1.61D-01 ExpMax= 5.48D+03 ExpMxC= 8.25D+02 IAcc=3 IRadAn=         5 AccDes= 0.00D+00
 Harris functional with IExCor=  205 and IRadAn=       5 diagonalized for initial guess.
 HarFok:  IExCor=  205 AccDes= 0.00D+00 IRadAn=         5 IDoV= 1 UseB2=F ITyADJ=14
 ICtDFT=  3500011 ScaDFX=  1.000000  1.000000  1.000000  1.000000
 FoFCou: FMM=F IPFlag=           0 FMFlag=      100000 FMFlg1=           0
         NFxFlg=           0 DoJE=T BraDBF=F KetDBF=T FulRan=T
         wScrn=  0.000000 ICntrl=       500 IOpCl=  0 I1Cent=   200000004 NGrid=           0
         NMat0=    1 NMatS0=      1 NMatT0=    0 NMatD0=    1 NMtDS0=    0 NMtDT0=    0
 Petite list used in FoFCou.
 Harris En= -76.1021199660690    
 JPrj=0 DoOrth=F DoCkMO=F.
 Initial guess orbital symmetries:
       Occupied  (A1) (A1) (B2) (A1) (B1)
       Virtual   (A1) (B2) (B2) (A1) (B1) (A1) (B2) (A1) (A1) (A2)
                 (B1) (A1) (B2) (A1)
 The electronic state of the initial guess is 1-A1.
 Leave Link  401 at Sun Jan 19 22:46:47 2025, MaxMem=  1258291200 cpu:               0.5 elap:               0.1
 (Enter /apl/gaussian/16c02/g16/l502.exe)
 Keep R1 ints in memory in symmetry-blocked form, NReq=1666939.
 FoFCou: FMM=F IPFlag=           0 FMFlag=           0 FMFlg1=           0
         NFxFlg=           0 DoJE=F BraDBF=F KetDBF=F FulRan=T
         wScrn=  0.000000 ICntrl=       600 IOpCl=  0 I1Cent=           0 NGrid=           0
         NMat0=    1 NMatS0=    190 NMatT0=    0 NMatD0=    1 NMtDS0=    0 NMtDT0=    0
 Petite list used in FoFCou.
 Closed shell SCF:
 Using DIIS extrapolation, IDIIS=  1040.
 NGot=  1258291200 LenX=  1258283165 LenY=  1258282283
 Requested convergence on RMS density matrix=1.00D-08 within 128 cycles.
 Requested convergence on MAX density matrix=1.00D-06.
 Requested convergence on             energy=1.00D-06.
 No special actions if energy rises.

 Cycle   1  Pass 1  IDiag  1:
 E= -75.9267118506086    
 DIIS: error= 7.80D-02 at cycle   1 NSaved=   1.
 NSaved= 1 IEnMin= 1 EnMin= -75.9267118506086     IErMin= 1 ErrMin= 7.80D-02
 ErrMax= 7.80D-02  0.00D+00 EMaxC= 1.00D-01 BMatC= 1.33D-01 BMatP= 1.33D-01
 IDIUse=3 WtCom= 2.20D-01 WtEn= 7.80D-01
 Coeff-Com:  0.100D+01
 Coeff-En:   0.100D+01
 Coeff:      0.100D+01
 Gap=     0.584 Goal=   None    Shift=    0.000
 GapD=    0.584 DampG=2.000 DampE=0.500 DampFc=1.0000 IDamp=-1.
 RMSDP=1.55D-02 MaxDP=1.21D-01              OVMax= 1.26D-01

 Cycle   2  Pass 1  IDiag  1:
 E= -75.9828653638663     Delta-E=       -0.056153513258 Rises=F Damp=F
 DIIS: error= 5.15D-02 at cycle   2 NSaved=   2.
 NSaved= 2 IEnMin= 2 EnMin= -75.9828653638663     IErMin= 2 ErrMin= 5.15D-02
 ErrMax= 5.15D-02  0.00D+00 EMaxC= 1.00D-01 BMatC= 4.10D-02 BMatP= 1.33D-01
 IDIUse=3 WtCom= 4.85D-01 WtEn= 5.15D-01
 Coeff-Com:  0.338D+00 0.662D+00
 Coeff-En:   0.974D-01 0.903D+00
 Coeff:      0.214D+00 0.786D+00
 Gap=     0.728 Goal=   None    Shift=    0.000
 RMSDP=7.62D-03 MaxDP=5.90D-02 DE=-5.62D-02 OVMax= 4.93D-02

 Cycle   3  Pass 1  IDiag  1:
 E= -76.0079740943530     Delta-E=       -0.025108730487 Rises=F Damp=F
 DIIS: error= 1.24D-02 at cycle   3 NSaved=   3.
 NSaved= 3 IEnMin= 3 EnMin= -76.0079740943530     IErMin= 3 ErrMin= 1.24D-02
 ErrMax= 1.24D-02  0.00D+00 EMaxC= 1.00D-01 BMatC= 2.45D-03 BMatP= 4.10D-02
 IDIUse=3 WtCom= 8.76D-01 WtEn= 1.24D-01
 Coeff-Com: -0.260D-01 0.169D+00 0.857D+00
 Coeff-En:   0.000D+00 0.000D+00 0.100D+01
 Coeff:     -0.228D-01 0.148D+00 0.874D+00
 Gap=     0.700 Goal=   None    Shift=    0.000
 RMSDP=1.55D-03 MaxDP=1.26D-02 DE=-2.51D-02 OVMax= 1.34D-02

 Cycle   4  Pass 1  IDiag  1:
 E= -76.0097438392955     Delta-E=       -0.001769744942 Rises=F Damp=F
 DIIS: error= 1.64D-03 at cycle   4 NSaved=   4.
 NSaved= 4 IEnMin= 4 EnMin= -76.0097438392955     IErMin= 4 ErrMin= 1.64D-03
 ErrMax= 1.64D-03  0.00D+00 EMaxC= 1.00D-01 BMatC= 2.62D-05 BMatP= 2.45D-03
 IDIUse=3 WtCom= 9.84D-01 WtEn= 1.64D-02
 Coeff-Com:  0.606D-02-0.788D-01-0.241D+00 0.131D+01
 Coeff-En:   0.000D+00 0.000D+00 0.000D+00 0.100D+01
 Coeff:      0.596D-02-0.776D-01-0.237D+00 0.131D+01
 Gap=     0.705 Goal=   None    Shift=    0.000
 RMSDP=2.27D-04 MaxDP=2.18D-03 DE=-1.77D-03 OVMax= 1.77D-03

 Cycle   5  Pass 1  IDiag  1:
 E= -76.0097678425311     Delta-E=       -0.000024003236 Rises=F Damp=F
 DIIS: error= 1.56D-04 at cycle   5 NSaved=   5.
 NSaved= 5 IEnMin= 5 EnMin= -76.0097678425311     IErMin= 5 ErrMin= 1.56D-04
 ErrMax= 1.56D-04  0.00D+00 EMaxC= 1.00D-01 BMatC= 1.86D-07 BMatP= 2.62D-05
 IDIUse=3 WtCom= 9.98D-01 WtEn= 1.56D-03
 Coeff-Com: -0.570D-04 0.721D-02 0.129D-01-0.222D+00 0.120D+01
 Coeff-En:   0.000D+00 0.000D+00 0.000D+00 0.000D+00 0.100D+01
 Coeff:     -0.569D-04 0.720D-02 0.129D-01-0.222D+00 0.120D+01
 Gap=     0.705 Goal=   None    Shift=    0.000
 RMSDP=4.77D-05 MaxDP=3.01D-04 DE=-2.40D-05 OVMax= 4.28D-04

 Cycle   6  Pass 1  IDiag  1:
 E= -76.0097683180387     Delta-E=       -0.000000475508 Rises=F Damp=F
 DIIS: error= 2.72D-05 at cycle   6 NSaved=   6.
 NSaved= 6 IEnMin= 6 EnMin= -76.0097683180387     IErMin= 6 ErrMin= 2.72D-05
 ErrMax= 2.72D-05  0.00D+00 EMaxC= 1.00D-01 BMatC= 7.92D-09 BMatP= 1.86D-07
 IDIUse=1 WtCom= 1.00D+00 WtEn= 0.00D+00
 Coeff-Com: -0.237D-03 0.175D-02 0.748D-02-0.872D-02-0.283D+00 0.128D+01
 Coeff:     -0.237D-03 0.175D-02 0.748D-02-0.872D-02-0.283D+00 0.128D+01
 Gap=     0.705 Goal=   None    Shift=    0.000
 RMSDP=1.29D-05 MaxDP=6.59D-05 DE=-4.76D-07 OVMax= 1.13D-04

 Cycle   7  Pass 1  IDiag  1:
 E= -76.0097683402756     Delta-E=       -0.000000022237 Rises=F Damp=F
 DIIS: error= 4.19D-06 at cycle   7 NSaved=   7.
 NSaved= 7 IEnMin= 7 EnMin= -76.0097683402756     IErMin= 7 ErrMin= 4.19D-06
 ErrMax= 4.19D-06  0.00D+00 EMaxC= 1.00D-01 BMatC= 2.98D-10 BMatP= 7.92D-09
 IDIUse=1 WtCom= 1.00D+00 WtEn= 0.00D+00
 Coeff-Com:  0.101D-03-0.970D-03-0.363D-02 0.104D-01 0.950D-01-0.565D+00
 Coeff-Com:  0.146D+01
 Coeff:      0.101D-03-0.970D-03-0.363D-02 0.104D-01 0.950D-01-0.565D+00
 Coeff:      0.146D+01
 Gap=     0.705 Goal=   None    Shift=    0.000
 RMSDP=1.87D-06 MaxDP=1.50D-05 DE=-2.22D-08 OVMax= 1.74D-05

 Cycle   8  Pass 1  IDiag  1:
 E= -76.0097683410620     Delta-E=       -0.000000000786 Rises=F Damp=F
 DIIS: error= 9.33D-07 at cycle   8 NSaved=   8.
 NSaved= 8 IEnMin= 8 EnMin= -76.0097683410620     IErMin= 8 ErrMin= 9.33D-07
 ErrMax= 9.33D-07  0.00D+00 EMaxC= 1.00D-01 BMatC= 7.00D-12 BMatP= 2.98D-10
 IDIUse=1 WtCom= 1.00D+00 WtEn= 0.00D+00
 Coeff-Com: -0.122D-04 0.153D-03 0.515D-03-0.247D-02-0.625D-02 0.646D-01
 Coeff-Com: -0.303D+00 0.125D+01
 Coeff:     -0.122D-04 0.153D-03 0.515D-03-0.247D-02-0.625D-02 0.646D-01
 Coeff:     -0.303D+00 0.125D+01
 Gap=     0.705 Goal=   None    Shift=    0.000
 RMSDP=2.84D-07 MaxDP=1.58D-06 DE=-7.86D-10 OVMax= 2.58D-06

 Cycle   9  Pass 1  IDiag  1:
 E= -76.0097683410793     Delta-E=       -0.000000000017 Rises=F Damp=F
 DIIS: error= 8.64D-08 at cycle   9 NSaved=   9.
 NSaved= 9 IEnMin= 9 EnMin= -76.0097683410793     IErMin= 9 ErrMin= 8.64D-08
 ErrMax= 8.64D-08  0.00D+00 EMaxC= 1.00D-01 BMatC= 1.26D-13 BMatP= 7.00D-12
 IDIUse=1 WtCom= 1.00D+00 WtEn= 0.00D+00
 Coeff-Com:  0.933D-06-0.200D-04-0.581D-04 0.451D-03-0.413D-03-0.572D-02
 Coeff-Com:  0.550D-01-0.370D+00 0.132D+01
 Coeff:      0.933D-06-0.200D-04-0.581D-04 0.451D-03-0.413D-03-0.572D-02
 Coeff:      0.550D-01-0.370D+00 0.132D+01
 Gap=     0.705 Goal=   None    Shift=    0.000
 RMSDP=5.04D-08 MaxDP=2.69D-07 DE=-1.73D-11 OVMax= 4.63D-07

 Cycle  10  Pass 1  IDiag  1:
 E= -76.0097683410795     Delta-E=       -0.000000000000 Rises=F Damp=F
 DIIS: error= 1.35D-08 at cycle  10 NSaved=  10.
 NSaved=10 IEnMin=10 EnMin= -76.0097683410795     IErMin=10 ErrMin= 1.35D-08
 ErrMax= 1.35D-08  0.00D+00 EMaxC= 1.00D-01 BMatC= 2.01D-15 BMatP= 1.26D-13
 IDIUse=1 WtCom= 1.00D+00 WtEn= 0.00D+00
 Coeff-Com: -0.168D-07 0.221D-05 0.546D-05-0.702D-04 0.213D-03 0.260D-03
 Coeff-Com: -0.752D-02 0.583D-01-0.262D+00 0.121D+01
 Coeff:     -0.168D-07 0.221D-05 0.546D-05-0.702D-04 0.213D-03 0.260D-03
 Coeff:     -0.752D-02 0.583D-01-0.262D+00 0.121D+01
 Gap=     0.705 Goal=   None    Shift=    0.000
 RMSDP=4.17D-09 MaxDP=2.23D-08 DE=-1.85D-13 OVMax= 3.94D-08

 SCF Done:  E(RHF) =  -76.0097683411     A.U. after   10 cycles
            NFock= 10  Conv=0.42D-08     -V/T= 2.0030
 KE= 7.577939208734D+01 PE=-1.986762063047D+02 EE= 3.778762422137D+01
 Leave Link  502 at Sun Jan 19 22:46:47 2025, MaxMem=  1258291200 cpu:               0.5 elap:               0.2
 (Enter /apl/gaussian/16c02/g16/l601.exe)
 Copying SCF densities to generalized density rwf, IOpCl= 0 IROHF=0.

 **********************************************************************

            Population analysis using the SCF Density.

 **********************************************************************

 Orbital symmetries:
       Occupied  (A1) (A1) (B2) (A1) (B1)
       Virtual   (A1) (B2) (B2) (A1) (A1) (B1) (B2) (A1) (A1) (A2)
                 (B1) (A1) (B2) (A1)
 The electronic state is 1-A1.
 Alpha  occ. eigenvalues --  -20.56028  -1.33434  -0.70752  -0.56274  -0.49591
 Alpha virt. eigenvalues --    0.20903   0.30202   1.03372   1.11889   1.15828
 Alpha virt. eigenvalues --    1.16878   1.38096   1.42181   2.03183   2.03360
 Alpha virt. eigenvalues --    2.07314   2.61527   2.93228   3.97153
          Condensed to atoms (all electrons):
               1          2          3
     1  O    8.345396   0.263245   0.263245
     2  H    0.263245   0.317615  -0.016803
     3  H    0.263245  -0.016803   0.317615
 Mulliken charges:
               1
     1  O   -0.871886
     2  H    0.435943
     3  H    0.435943
 Sum of Mulliken charges =  -0.00000
 Mulliken charges with hydrogens summed into heavy atoms:
               1
     1  O   -0.000000
 Electronic spatial extent (au):  <R**2>=             19.0520
 Charge=             -0.0000 electrons
 Dipole moment (field-independent basis, Debye):
    X=             -0.0000    Y=              0.0000    Z=             -2.1761  Tot=              2.1761
 Quadrupole moment (field-independent basis, Debye-Ang):
   XX=             -7.2456   YY=             -3.9626   ZZ=             -6.0684
   XY=              0.0000   XZ=              0.0000   YZ=              0.0000
 Traceless Quadrupole moment (field-independent basis, Debye-Ang):
   XX=             -1.4867   YY=              1.7962   ZZ=             -0.3095
   XY=              0.0000   XZ=              0.0000   YZ=              0.0000
 Octapole moment (field-independent basis, Debye-Ang**2):
  XXX=              0.0000  YYY=             -0.0000  ZZZ=             -1.3736  XYY=             -0.0000
  XXY=              0.0000  XXZ=             -0.3688  XZZ=             -0.0000  YZZ=             -0.0000
  YYZ=             -1.4194  XYZ=             -0.0000
 Hexadecapole moment (field-independent basis, Debye-Ang**3):
 XXXX=             -5.2289 YYYY=             -5.4095 ZZZZ=             -6.0754 XXXY=             -0.0000
 XXXZ=             -0.0000 YYYX=              0.0000 YYYZ=              0.0000 ZZZX=             -0.0000
 ZZZY=             -0.0000 XXYY=             -2.0733 XXZZ=             -1.9293 YYZZ=             -1.6049
 XXYZ=             -0.0000 YYXZ=              0.0000 ZZXY=              0.0000
 N-N= 9.099421654888D+00 E-N=-1.986762064200D+02  KE= 7.577939208734D+01
 Symmetry A1   KE= 6.773716023910D+01
 Symmetry A2   KE= 5.546123101779D-35
 Symmetry B1   KE= 4.552190921629D+00
 Symmetry B2   KE= 3.490040926609D+00
 No NMR shielding tensors so no spin-rotation constants.
 Leave Link  601 at Sun Jan 19 22:46:47 2025, MaxMem=  1258291200 cpu:               0.4 elap:               0.1
 (Enter /apl/gaussian/16c02/g16/l701.exe)
 ... and contract with generalized density number  0.
 Compute integral first derivatives.
 Leave Link  701 at Sun Jan 19 22:46:47 2025, MaxMem=  1258291200 cpu:               0.4 elap:               0.1
 (Enter /apl/gaussian/16c02/g16/l702.exe)
 L702 exits ... SP integral derivatives will be done elsewhere.
 Leave Link  702 at Sun Jan 19 22:46:47 2025, MaxMem=  1258291200 cpu:               0.0 elap:               0.0
 (Enter /apl/gaussian/16c02/g16/l703.exe)
 Integral derivatives from FoFJK, PRISM(SPDF).
 Compute integral first derivatives, UseDBF=F ICtDFT=           0.
 Calling FoFJK, ICntrl=      2127 FMM=F ISym2X=1 I1Cent= 0 IOpClX= 0 NMat=1 NMatS=1 NMatT=0.
 FoFJK:  IHMeth= 1 ICntrl=    2127 DoSepK=F KAlg= 0 I1Cent=           0 FoldK=F
 IRaf=         0 NMat=       1 IRICut=       1 DoRegI=T DoRafI=F ISym2E= 1 IDoP0=0 IntGTp=1.
 FoFCou: FMM=F IPFlag=           0 FMFlag=      100000 FMFlg1=         800
         NFxFlg=           0 DoJE=F BraDBF=F KetDBF=F FulRan=T
         wScrn=  0.000000 ICntrl=      2127 IOpCl=  0 I1Cent=           0 NGrid=           0
         NMat0=    1 NMatS0=      1 NMatT0=    0 NMatD0=    1 NMtDS0=    0 NMtDT0=    0
 Petite list used in FoFCou.
 Leave Link  703 at Sun Jan 19 22:46:47 2025, MaxMem=  1258291200 cpu:               0.5 elap:               0.1
 (Enter /apl/gaussian/16c02/g16/l716.exe)
 Dipole        =-7.47770605D-17 0.00000000D+00-8.56160362D-01
 ***** Axes restored to original set *****
 -------------------------------------------------------------------
 Center     Atomic                   Forces (Hartrees/Bohr)
 Number     Number              X              Y              Z
 -------------------------------------------------------------------
      1        8           0.000000000    0.017352595   -0.000000000
      2        1           0.020405037   -0.008676297    0.000000000
      3        1          -0.020405037   -0.008676297    0.000000000
 -------------------------------------------------------------------
 Cartesian Forces:  Max     0.020405037 RMS     0.011946175
 Leave Link  716 at Sun Jan 19 22:46:47 2025, MaxMem=  1258291200 cpu:               0.0 elap:               0.0
 (Enter /apl/gaussian/16c02/g16/l103.exe)

 GradGradGradGradGradGradGradGradGradGradGradGradGradGradGradGradGradGrad
 Berny optimization.
 FormGI is forming the generalized inverse of G from B-inverse, IUseBI=4.
 Internal  Forces:  Max     0.021595058 RMS     0.018412656
 Search for a local minimum.
 Step number   1 out of a maximum of   20
 All quantities printed in internal units (Hartrees-Bohrs-Radians)
 RMS Force = .18413D-01 SwitMx=.10000D-02 MixMth= 1
 Mixed Optimization -- RFO/linear search
 Second derivative matrix not updated -- first step.
 The second derivative matrix:
                          R1        R2        A1
           R1           0.54101
           R2           0.00000   0.54101
           A1           0.00000   0.00000   0.16000
 ITU=  0
     Eigenvalues ---    0.16000   0.54101   0.54101
 RFO step:  Lambda=-2.23702629D-03 EMin= 1.60000000D-01
 Linear search not attempted -- first point.
 Iteration  1 RMS(Cart)=  0.05172525 RMS(Int)=  0.00093550
 Iteration  2 RMS(Cart)=  0.00061275 RMS(Int)=  0.00000037
 Iteration  3 RMS(Cart)=  0.00000042 RMS(Int)=  0.00000000
 ITry= 1 IFail=0 DXMaxC= 6.25D-02 DCOld= 1.00D+10 DXMaxT= 3.00D-01 DXLimC= 3.00D+00 Rises=F
 ClnCor:  largest displacement from symmetrization is 1.73D-15 for atom     3.
 Variable       Old X    -DE/DX   Delta X   Delta X   Delta X     New X
                                 (Linear)    (Quad)   (Total)
    R1        1.82640  -0.02160   0.00000  -0.03975  -0.03975   1.78665
    R2        1.82640  -0.02160   0.00000  -0.03975  -0.03975   1.78665
    A1        1.87985  -0.00919   0.00000  -0.05662  -0.05662   1.82323
         Item               Value     Threshold  Converged?
 Maximum Force            0.021595     0.000450     NO 
 RMS     Force            0.018413     0.000300     NO 
 Maximum Displacement     0.062510     0.001800     NO 
 RMS     Displacement     0.051662     0.001200     NO 
 Predicted change in Energy=-1.125634D-03
 Lowest energy point so far.  Saving SCF results.
 GradGradGradGradGradGradGradGradGradGradGradGradGradGradGradGradGradGrad

 Leave Link  103 at Sun Jan 19 22:46:47 2025, MaxMem=  1258291200 cpu:               0.1 elap:               0.0
 (Enter /apl/gaussian/16c02/g16/l202.exe)
                          Input orientation:                          
 ---------------------------------------------------------------------
 Center     Atomic      Atomic             Coordinates (Angstroms)
 Number     Number       Type             X           Y           Z
 ---------------------------------------------------------------------
      1          8           0       -0.000000   -0.034974    0.000000
      2          1           0       -0.747375    0.544087    0.000000
      3          1           0        0.747375    0.544087   -0.000000
 ---------------------------------------------------------------------
                    Distance matrix (angstroms):
                    1          2          3
     1  O    0.000000
     2  H    0.945453   0.000000
     3  H    0.945453   1.494751   0.000000
 Stoichiometry    H2O
 Framework group  C2V[C2(O),SGV(H2)]
 Deg. of freedom     2
 Full point group                 C2V     NOp   4
 RotChk:  IX=0 Diff= 1.06D-15
 Largest Abelian subgroup         C2V     NOp   4
 Largest concise Abelian subgroup C2      NOp   2
                         Standard orientation:                         
 ---------------------------------------------------------------------
 Center     Atomic      Atomic             Coordinates (Angstroms)
 Number     Number       Type             X           Y           Z
 ---------------------------------------------------------------------
      1          8           0        0.000000    0.000000    0.115812
      2          1           0        0.000000    0.747375   -0.463249
      3          1           0       -0.000000   -0.747375   -0.463249
 ---------------------------------------------------------------------
 Rotational constants (GHZ):         841.9731739         448.8739634         292.7843466
 Leave Link  202 at Sun Jan 19 22:46:47 2025, MaxMem=  1258291200 cpu:               0.0 elap:               0.0
 (Enter /apl/gaussian/16c02/g16/l301.exe)
 Standard basis: 6-31G(d) (6D, 7F)
 Ernie: Thresh=  0.10000D-02 Tol=  0.10000D-05 Strict=F.
 There are    10 symmetry adapted cartesian basis functions of A1  symmetry.
 There are     1 symmetry adapted cartesian basis functions of A2  symmetry.
 There are     3 symmetry adapted cartesian basis functions of B1  symmetry.
 There are     5 symmetry adapted cartesian basis functions of B2  symmetry.
 There are    10 symmetry adapted basis functions of A1  symmetry.
 There are     1 symmetry adapted basis functions of A2  symmetry.
 There are     3 symmetry adapted basis functions of B1  symmetry.
 There are     5 symmetry adapted basis functions of B2  symmetry.
    19 basis functions,    36 primitive gaussians,    19 cartesian basis functions
     5 alpha electrons        5 beta electrons
       nuclear repulsion energy         9.3093411467 Hartrees.
 IExCor=    0 DFT=F Ex=HF Corr=None ExCW=0 ScaHFX=  1.000000
 ScaDFX=  1.000000  1.000000  1.000000  1.000000 ScalE2=  1.000000  1.000000
 IRadAn=      5 IRanWt=     -1 IRanGd=            0 ICorTp=0 IEmpDi=  4
 NAtoms=    3 NActive=    3 NUniq=    2 SFac= 2.25D+00 NAtFMM=   60 NAOKFM=F Big=F
 Integral buffers will be    131072 words long.
 Raffenetti 1 integral format.
 Two-electron integral symmetry is turned on.
 Leave Link  301 at Sun Jan 19 22:46:47 2025, MaxMem=  1258291200 cpu:               0.0 elap:               0.0
 (Enter /apl/gaussian/16c02/g16/l302.exe)
 NPDir=0 NMtPBC=     1 NCelOv=     1 NCel=       1 NClECP=     1 NCelD=      1
         NCelK=      1 NCelE2=     1 NClLst=     1 CellRange=     0.0.
 One-electron integrals computed using PRISM.
 One-electron integral symmetry used in STVInt
 NBasis=    19 RedAO= T EigKep=  2.19D-02  NBF=    10     1     3     5
 NBsUse=    19 1.00D-06 EigRej= -1.00D+00 NBFU=    10     1     3     5
 Leave Link  302 at Sun Jan 19 22:46:47 2025, MaxMem=  1258291200 cpu:               0.3 elap:               0.1
 (Enter /apl/gaussian/16c02/g16/l303.exe)
 DipDrv:  MaxL=1.
 Leave Link  303 at Sun Jan 19 22:46:47 2025, MaxMem=  1258291200 cpu:               0.0 elap:               0.0
 (Enter /apl/gaussian/16c02/g16/l401.exe)
 Initial guess from the checkpoint file:  "/lwork/users/sw6/8048305.ccpbs1/gaussian/Gau-3289652.chk"
 B after Tr=     0.000000   -0.000000    0.000000
         Rot=    1.000000    0.000000   -0.000000    0.000000 Ang=   0.00 deg.
 Guess basis will be translated and rotated to current coordinates.
 JPrj=2 DoOrth=T DoCkMO=T.
 Initial guess orbital symmetries:
       Occupied  (A1) (A1) (B2) (A1) (B1)
       Virtual   (A1) (B2) (B2) (A1) (A1) (B1) (B2) (A1) (A1) (A2)
                 (B1) (A1) (B2) (A1)
 The electronic state of the initial guess is 1-A1.
 Generating alternative initial guess.
 ExpMin= 1.61D-01 ExpMax= 5.48D+03 ExpMxC= 8.25D+02 IAcc=3 IRadAn=         5 AccDes= 0.00D+00
 Harris functional with IExCor=  205 and IRadAn=       5 diagonalized for initial guess.
 HarFok:  IExCor=  205 AccDes= 0.00D+00 IRadAn=         5 IDoV= 1 UseB2=F ITyADJ=14
 ICtDFT=  3500011 ScaDFX=  1.000000  1.000000  1.000000  1.000000
 FoFCou: FMM=F IPFlag=           0 FMFlag=      100000 FMFlg1=           0
         NFxFlg=           0 DoJE=T BraDBF=F KetDBF=T FulRan=T
         wScrn=  0.000000 ICntrl=       500 IOpCl=  0 I1Cent=   200000004 NGrid=           0
         NMat0=    1 NMatS0=      1 NMatT0=    0 NMatD0=    1 NMtDS0=    0 NMtDT0=    0
 Petite list used in FoFCou.
 Harris En= -76.1025530234104    
 Leave Link  401 at Sun Jan 19 22:46:47 2025, MaxMem=  1258291200 cpu:               0.6 elap:               0.1
 (Enter /apl/gaussian/16c02/g16/l502.exe)
 Keep R1 ints in memory in symmetry-blocked form, NReq=1666939.
 FoFCou: FMM=F IPFlag=           0 FMFlag=           0 FMFlg1=           0
         NFxFlg=           0 DoJE=F BraDBF=F KetDBF=F FulRan=T
         wScrn=  0.000000 ICntrl=       600 IOpCl=  0 I1Cent=           0 NGrid=           0
         NMat0=    1 NMatS0=    190 NMatT0=    0 NMatD0=    1 NMtDS0=    0 NMtDT0=    0
 Petite list used in FoFCou.
 Closed shell SCF:
 Using DIIS extrapolation, IDIIS=  1040.
 NGot=  1258291200 LenX=  1258283165 LenY=  1258282283
 Requested convergence on RMS density matrix=1.00D-08 within 128 cycles.
 Requested convergence on MAX density matrix=1.00D-06.
 Requested convergence on             energy=1.00D-06.
 No special actions if energy rises.

 Cycle   1  Pass 1  IDiag  1:
 E= -76.0103333651819    
 DIIS: error= 4.26D-03 at cycle   1 NSaved=   1.
 NSaved= 1 IEnMin= 1 EnMin= -76.0103333651819     IErMin= 1 ErrMin= 4.26D-03
 ErrMax= 4.26D-03  0.00D+00 EMaxC= 1.00D-01 BMatC= 4.16D-04 BMatP= 4.16D-04
 IDIUse=3 WtCom= 9.57D-01 WtEn= 4.26D-02
 Coeff-Com:  0.100D+01
 Coeff-En:   0.100D+01
 Coeff:      0.100D+01
 Gap=     0.718 Goal=   None    Shift=    0.000
 GapD=    0.718 DampG=2.000 DampE=1.000 DampFc=2.0000 IDamp=-1.
 RMSDP=8.25D-04 MaxDP=4.38D-03              OVMax= 5.75D-03

 Cycle   2  Pass 1  IDiag  1:
 E= -76.0106679342378     Delta-E=       -0.000334569056 Rises=F Damp=F
 DIIS: error= 1.95D-03 at cycle   2 NSaved=   2.
 NSaved= 2 IEnMin= 2 EnMin= -76.0106679342378     IErMin= 2 ErrMin= 1.95D-03
 ErrMax= 1.95D-03  0.00D+00 EMaxC= 1.00D-01 BMatC= 4.78D-05 BMatP= 4.16D-04
 IDIUse=3 WtCom= 9.80D-01 WtEn= 1.95D-02
 Coeff-Com:  0.154D+00 0.846D+00
 Coeff-En:   0.000D+00 0.100D+01
 Coeff:      0.151D+00 0.849D+00
 Gap=     0.711 Goal=   None    Shift=    0.000
 RMSDP=2.72D-04 MaxDP=2.45D-03 DE=-3.35D-04 OVMax= 1.99D-03

 Cycle   3  Pass 1  IDiag  1:
 E= -76.0106990588387     Delta-E=       -0.000031124601 Rises=F Damp=F
 DIIS: error= 6.02D-04 at cycle   3 NSaved=   3.
 NSaved= 3 IEnMin= 3 EnMin= -76.0106990588387     IErMin= 3 ErrMin= 6.02D-04
 ErrMax= 6.02D-04  0.00D+00 EMaxC= 1.00D-01 BMatC= 4.89D-06 BMatP= 4.78D-05
 IDIUse=3 WtCom= 9.94D-01 WtEn= 6.02D-03
 Coeff-Com: -0.436D-01 0.171D+00 0.873D+00
 Coeff-En:   0.000D+00 0.000D+00 0.100D+01
 Coeff:     -0.434D-01 0.170D+00 0.873D+00
 Gap=     0.712 Goal=   None    Shift=    0.000
 RMSDP=8.65D-05 MaxDP=6.28D-04 DE=-3.11D-05 OVMax= 8.46D-04

 Cycle   4  Pass 1  IDiag  1:
 E= -76.0107035237194     Delta-E=       -0.000004464881 Rises=F Damp=F
 DIIS: error= 1.38D-04 at cycle   4 NSaved=   4.
 NSaved= 4 IEnMin= 4 EnMin= -76.0107035237194     IErMin= 4 ErrMin= 1.38D-04
 ErrMax= 1.38D-04  0.00D+00 EMaxC= 1.00D-01 BMatC= 1.44D-07 BMatP= 4.89D-06
 IDIUse=3 WtCom= 9.99D-01 WtEn= 1.38D-03
 Coeff-Com: -0.457D-02-0.480D-01-0.138D-01 0.107D+01
 Coeff-En:   0.000D+00 0.000D+00 0.000D+00 0.100D+01
 Coeff:     -0.456D-02-0.479D-01-0.138D-01 0.107D+01
 Gap=     0.712 Goal=   None    Shift=    0.000
 RMSDP=2.45D-05 MaxDP=2.01D-04 DE=-4.46D-06 OVMax= 2.30D-04

 Cycle   5  Pass 1  IDiag  1:
 E= -76.0107037580028     Delta-E=       -0.000000234283 Rises=F Damp=F
 DIIS: error= 2.91D-05 at cycle   5 NSaved=   5.
 NSaved= 5 IEnMin= 5 EnMin= -76.0107037580028     IErMin= 5 ErrMin= 2.91D-05
 ErrMax= 2.91D-05  0.00D+00 EMaxC= 1.00D-01 BMatC= 7.58D-09 BMatP= 1.44D-07
 IDIUse=1 WtCom= 1.00D+00 WtEn= 0.00D+00
 Coeff-Com:  0.326D-02 0.837D-02-0.242D-01-0.398D+00 0.141D+01
 Coeff:      0.326D-02 0.837D-02-0.242D-01-0.398D+00 0.141D+01
 Gap=     0.712 Goal=   None    Shift=    0.000
 RMSDP=1.05D-05 MaxDP=6.55D-05 DE=-2.34D-07 OVMax= 1.02D-04

 Cycle   6  Pass 1  IDiag  1:
 E= -76.0107037784815     Delta-E=       -0.000000020479 Rises=F Damp=F
 DIIS: error= 4.65D-06 at cycle   6 NSaved=   6.
 NSaved= 6 IEnMin= 6 EnMin= -76.0107037784815     IErMin= 6 ErrMin= 4.65D-06
 ErrMax= 4.65D-06  0.00D+00 EMaxC= 1.00D-01 BMatC= 1.62D-10 BMatP= 7.58D-09
 IDIUse=1 WtCom= 1.00D+00 WtEn= 0.00D+00
 Coeff-Com: -0.111D-02-0.258D-02 0.102D-01 0.129D+00-0.531D+00 0.140D+01
 Coeff:     -0.111D-02-0.258D-02 0.102D-01 0.129D+00-0.531D+00 0.140D+01
 Gap=     0.712 Goal=   None    Shift=    0.000
 RMSDP=1.43D-06 MaxDP=8.87D-06 DE=-2.05D-08 OVMax= 1.35D-05

 Cycle   7  Pass 1  IDiag  1:
 E= -76.0107037788529     Delta-E=       -0.000000000371 Rises=F Damp=F
 DIIS: error= 5.53D-07 at cycle   7 NSaved=   7.
 NSaved= 7 IEnMin= 7 EnMin= -76.0107037788529     IErMin= 7 ErrMin= 5.53D-07
 ErrMax= 5.53D-07  0.00D+00 EMaxC= 1.00D-01 BMatC= 3.59D-12 BMatP= 1.62D-10
 IDIUse=1 WtCom= 1.00D+00 WtEn= 0.00D+00
 Coeff-Com:  0.206D-03 0.517D-03-0.207D-02-0.248D-01 0.108D+00-0.378D+00
 Coeff-Com:  0.130D+01
 Coeff:      0.206D-03 0.517D-03-0.207D-02-0.248D-01 0.108D+00-0.378D+00
 Coeff:      0.130D+01
 Gap=     0.712 Goal=   None    Shift=    0.000
 RMSDP=2.01D-07 MaxDP=1.44D-06 DE=-3.71D-10 OVMax= 1.85D-06

 Cycle   8  Pass 1  IDiag  1:
 E= -76.0107037788624     Delta-E=       -0.000000000009 Rises=F Damp=F
 DIIS: error= 1.13D-07 at cycle   8 NSaved=   8.
 NSaved= 8 IEnMin= 8 EnMin= -76.0107037788624     IErMin= 8 ErrMin= 1.13D-07
 ErrMax= 1.13D-07  0.00D+00 EMaxC= 1.00D-01 BMatC= 1.40D-13 BMatP= 3.59D-12
 IDIUse=1 WtCom= 1.00D+00 WtEn= 0.00D+00
 Coeff-Com: -0.417D-04-0.130D-03 0.445D-03 0.561D-02-0.245D-01 0.979D-01
 Coeff-Com: -0.503D+00 0.142D+01
 Coeff:     -0.417D-04-0.130D-03 0.445D-03 0.561D-02-0.245D-01 0.979D-01
 Coeff:     -0.503D+00 0.142D+01
 Gap=     0.712 Goal=   None    Shift=    0.000
 RMSDP=4.43D-08 MaxDP=2.47D-07 DE=-9.44D-12 OVMax= 3.72D-07

 Cycle   9  Pass 1  IDiag  1:
 E= -76.0107037788627     Delta-E=       -0.000000000000 Rises=F Damp=F
 DIIS: error= 6.98D-09 at cycle   9 NSaved=   9.
 NSaved= 9 IEnMin= 9 EnMin= -76.0107037788627     IErMin= 9 ErrMin= 6.98D-09
 ErrMax= 6.98D-09  0.00D+00 EMaxC= 1.00D-01 BMatC= 6.53D-16 BMatP= 1.40D-13
 IDIUse=1 WtCom= 1.00D+00 WtEn= 0.00D+00
 Coeff-Com:  0.100D-04 0.312D-04-0.111D-03-0.135D-02 0.598D-02-0.249D-01
 Coeff-Com:  0.133D+00-0.407D+00 0.129D+01
 Coeff:      0.100D-04 0.312D-04-0.111D-03-0.135D-02 0.598D-02-0.249D-01
 Coeff:      0.133D+00-0.407D+00 0.129D+01
 Gap=     0.712 Goal=   None    Shift=    0.000
 RMSDP=2.82D-09 MaxDP=1.33D-08 DE=-3.41D-13 OVMax= 2.59D-08

 SCF Done:  E(RHF) =  -76.0107037789     A.U. after    9 cycles
            NFock=  9  Conv=0.28D-08     -V/T= 2.0019
 KE= 7.586927900988D+01 PE=-1.991262469423D+02 EE= 3.793692300680D+01
 Leave Link  502 at Sun Jan 19 22:46:47 2025, MaxMem=  1258291200 cpu:               0.4 elap:               0.1
 (Enter /apl/gaussian/16c02/g16/l701.exe)
 ... and contract with generalized density number  0.
 Compute integral first derivatives.
 Leave Link  701 at Sun Jan 19 22:46:48 2025, MaxMem=  1258291200 cpu:               0.4 elap:               0.1
 (Enter /apl/gaussian/16c02/g16/l702.exe)
 L702 exits ... SP integral derivatives will be done elsewhere.
 Leave Link  702 at Sun Jan 19 22:46:48 2025, MaxMem=  1258291200 cpu:               0.0 elap:               0.0
 (Enter /apl/gaussian/16c02/g16/l703.exe)
 Integral derivatives from FoFJK, PRISM(SPDF).
 Compute integral first derivatives, UseDBF=F ICtDFT=           0.
 Calling FoFJK, ICntrl=      2127 FMM=F ISym2X=1 I1Cent= 0 IOpClX= 0 NMat=1 NMatS=1 NMatT=0.
 FoFJK:  IHMeth= 1 ICntrl=    2127 DoSepK=F KAlg= 0 I1Cent=           0 FoldK=F
 IRaf=         0 NMat=       1 IRICut=       1 DoRegI=T DoRafI=F ISym2E= 1 IDoP0=0 IntGTp=1.
 FoFCou: FMM=F IPFlag=           0 FMFlag=      100000 FMFlg1=         800
         NFxFlg=           0 DoJE=F BraDBF=F KetDBF=F FulRan=T
         wScrn=  0.000000 ICntrl=      2127 IOpCl=  0 I1Cent=           0 NGrid=           0
         NMat0=    1 NMatS0=      1 NMatT0=    0 NMatD0=    1 NMtDS0=    0 NMtDT0=    0
 Petite list used in FoFCou.
 Leave Link  703 at Sun Jan 19 22:46:48 2025, MaxMem=  1258291200 cpu:               0.5 elap:               0.1
 (Enter /apl/gaussian/16c02/g16/l716.exe)
 Dipole        =-7.10588386D-17 0.00000000D+00-8.71589333D-01
 ***** Axes restored to original set *****
 -------------------------------------------------------------------
 Center     Atomic                   Forces (Hartrees/Bohr)
 Number     Number              X              Y              Z
 -------------------------------------------------------------------
      1        8           0.000000000    0.000000321   -0.000000000
      2        1          -0.003379665   -0.000000160    0.000000000
      3        1           0.003379665   -0.000000160    0.000000000
 -------------------------------------------------------------------
 Cartesian Forces:  Max     0.003379665 RMS     0.001593189
 Leave Link  716 at Sun Jan 19 22:46:48 2025, MaxMem=  1258291200 cpu:               0.0 elap:               0.0
 (Enter /apl/gaussian/16c02/g16/l103.exe)

 GradGradGradGradGradGradGradGradGradGradGradGradGradGradGradGradGradGrad
 Berny optimization.
 Using GEDIIS/GDIIS optimizer.
 FormGI is forming the generalized inverse of G from B-inverse, IUseBI=4.
 Internal  Forces:  Max     0.003698483 RMS     0.003052468
 Search for a local minimum.
 Step number   2 out of a maximum of   20
 All quantities printed in internal units (Hartrees-Bohrs-Radians)
 RMS Force = .30525D-02 SwitMx=.10000D-02 MixMth= 1
 Mixed Optimization -- RFO/linear search
 Update second derivatives using D2CorX and points    1    2
 DE= -9.35D-04 DEPred=-1.13D-03 R= 8.31D-01
 TightC=F SS=  1.41D+00  RLast= 7.98D-02 DXNew= 5.0454D-01 2.3937D-01
 Trust test= 8.31D-01 RLast= 7.98D-02 DXMaxT set to 3.00D-01
 The second derivative matrix:
                          R1        R2        A1
           R1           0.55440
           R2           0.01340   0.55440
           A1           0.02994   0.02994   0.18551
 ITU=  1  0
 Use linear search instead of GDIIS.
     Eigenvalues ---    0.18088   0.54101   0.57243
 RFO step:  Lambda=-1.99597257D-05 EMin= 1.80880322D-01
 Quartic linear search produced a step of -0.15055.
 Iteration  1 RMS(Cart)=  0.01132707 RMS(Int)=  0.00006098
 Iteration  2 RMS(Cart)=  0.00004386 RMS(Int)=  0.00000000
 Iteration  3 RMS(Cart)=  0.00000000 RMS(Int)=  0.00000000
 ITry= 1 IFail=0 DXMaxC= 1.25D-02 DCOld= 1.00D+10 DXMaxT= 3.00D-01 DXLimC= 3.00D+00 Rises=F
 ClnCor:  largest displacement from symmetrization is 9.42D-16 for atom     3.
 Variable       Old X    -DE/DX   Delta X   Delta X   Delta X     New X
                                 (Linear)    (Quad)   (Total)
    R1        1.78665   0.00267   0.00598  -0.00245   0.00353   1.79018
    R2        1.78665   0.00267   0.00598  -0.00245   0.00353   1.79018
    A1        1.82323   0.00370   0.00852   0.00924   0.01776   1.84100
         Item               Value     Threshold  Converged?
 Maximum Force            0.003698     0.000450     NO 
 RMS     Force            0.003052     0.000300     NO 
 Maximum Displacement     0.012474     0.001800     NO 
 RMS     Displacement     0.011314     0.001200     NO 
 Predicted change in Energy=-4.446036D-05
 Lowest energy point so far.  Saving SCF results.
 GradGradGradGradGradGradGradGradGradGradGradGradGradGradGradGradGradGrad

 Leave Link  103 at Sun Jan 19 22:46:48 2025, MaxMem=  1258291200 cpu:               0.0 elap:               0.0
 (Enter /apl/gaussian/16c02/g16/l202.exe)
                          Input orientation:                          
 ---------------------------------------------------------------------
 Center     Atomic      Atomic             Coordinates (Angstroms)
 Number     Number       Type             X           Y           Z
 ---------------------------------------------------------------------
      1          8           0       -0.000000   -0.031288   -0.000000
      2          1           0       -0.753977    0.542244    0.000000
      3          1           0        0.753977    0.542244   -0.000000
 ---------------------------------------------------------------------
                    Distance matrix (angstroms):
                    1          2          3
     1  O    0.000000
     2  H    0.947322   0.000000
     3  H    0.947322   1.507953   0.000000
 Stoichiometry    H2O
 Framework group  C2V[C2(O),SGV(H2)]
 Deg. of freedom     2
 Full point group                 C2V     NOp   4
 RotChk:  IX=0 Diff= 1.25D-15
 Largest Abelian subgroup         C2V     NOp   4
 Largest concise Abelian subgroup C2      NOp   2
                         Standard orientation:                         
 ---------------------------------------------------------------------
 Center     Atomic      Atomic             Coordinates (Angstroms)
 Number     Number       Type             X           Y           Z
 ---------------------------------------------------------------------
      1          8           0        0.000000    0.000000    0.114706
      2          1           0        0.000000    0.753977   -0.458826
      3          1           0       -0.000000   -0.753977   -0.458826
 ---------------------------------------------------------------------
 Rotational constants (GHZ):         858.2864990         441.0484277         291.3382094
 Leave Link  202 at Sun Jan 19 22:46:48 2025, MaxMem=  1258291200 cpu:               0.0 elap:               0.0
 (Enter /apl/gaussian/16c02/g16/l301.exe)
 Standard basis: 6-31G(d) (6D, 7F)
 Ernie: Thresh=  0.10000D-02 Tol=  0.10000D-05 Strict=F.
 There are    10 symmetry adapted cartesian basis functions of A1  symmetry.
 There are     1 symmetry adapted cartesian basis functions of A2  symmetry.
 There are     3 symmetry adapted cartesian basis functions of B1  symmetry.
 There are     5 symmetry adapted cartesian basis functions of B2  symmetry.
 There are    10 symmetry adapted basis functions of A1  symmetry.
 There are     1 symmetry adapted basis functions of A2  symmetry.
 There are     3 symmetry adapted basis functions of B1  symmetry.
 There are     5 symmetry adapted basis functions of B2  symmetry.
    19 basis functions,    36 primitive gaussians,    19 cartesian basis functions
     5 alpha electrons        5 beta electrons
       nuclear repulsion energy         9.2885738977 Hartrees.
 IExCor=    0 DFT=F Ex=HF Corr=None ExCW=0 ScaHFX=  1.000000
 ScaDFX=  1.000000  1.000000  1.000000  1.000000 ScalE2=  1.000000  1.000000
 IRadAn=      5 IRanWt=     -1 IRanGd=            0 ICorTp=0 IEmpDi=  4
 NAtoms=    3 NActive=    3 NUniq=    2 SFac= 2.25D+00 NAtFMM=   60 NAOKFM=F Big=F
 Integral buffers will be    131072 words long.
 Raffenetti 1 integral format.
 Two-electron integral symmetry is turned on.
 Leave Link  301 at Sun Jan 19 22:46:48 2025, MaxMem=  1258291200 cpu:               0.0 elap:               0.0
 (Enter /apl/gaussian/16c02/g16/l302.exe)
 NPDir=0 NMtPBC=     1 NCelOv=     1 NCel=       1 NClECP=     1 NCelD=      1
         NCelK=      1 NCelE2=     1 NClLst=     1 CellRange=     0.0.
 One-electron integrals computed using PRISM.
 One-electron integral symmetry used in STVInt
 NBasis=    19 RedAO= T EigKep=  2.19D-02  NBF=    10     1     3     5
 NBsUse=    19 1.00D-06 EigRej= -1.00D+00 NBFU=    10     1     3     5
 Leave Link  302 at Sun Jan 19 22:46:48 2025, MaxMem=  1258291200 cpu:               0.3 elap:               0.1
 (Enter /apl/gaussian/16c02/g16/l303.exe)
 DipDrv:  MaxL=1.
 Leave Link  303 at Sun Jan 19 22:46:48 2025, MaxMem=  1258291200 cpu:               0.0 elap:               0.0
 (Enter /apl/gaussian/16c02/g16/l401.exe)
 Initial guess from the checkpoint file:  "/lwork/users/sw6/8048305.ccpbs1/gaussian/Gau-3289652.chk"
 B after Tr=    -0.000000    0.000000   -0.000000
         Rot=    1.000000   -0.000000   -0.000000   -0.000000 Ang=   0.00 deg.
 Guess basis will be translated and rotated to current coordinates.
 JPrj=2 DoOrth=T DoCkMO=T.
 Initial guess orbital symmetries:
       Occupied  (A1) (A1) (B2) (A1) (B1)
       Virtual   (A1) (B2) (B2) (A1) (B1) (A1) (B2) (A1) (A1) (A2)
                 (B1) (A1) (B2) (A1)
 The electronic state of the initial guess is 1-A1.
 Leave Link  401 at Sun Jan 19 22:46:48 2025, MaxMem=  1258291200 cpu:               0.1 elap:               0.0
 (Enter /apl/gaussian/16c02/g16/l502.exe)
 Keep R1 ints in memory in symmetry-blocked form, NReq=1666939.
 FoFCou: FMM=F IPFlag=           0 FMFlag=           0 FMFlg1=           0
         NFxFlg=           0 DoJE=F BraDBF=F KetDBF=F FulRan=T
         wScrn=  0.000000 ICntrl=       600 IOpCl=  0 I1Cent=           0 NGrid=           0
         NMat0=    1 NMatS0=    190 NMatT0=    0 NMatD0=    1 NMtDS0=    0 NMtDT0=    0
 Petite list used in FoFCou.
 Closed shell SCF:
 Using DIIS extrapolation, IDIIS=  1040.
 NGot=  1258291200 LenX=  1258283165 LenY=  1258282283
 Requested convergence on RMS density matrix=1.00D-08 within 128 cycles.
 Requested convergence on MAX density matrix=1.00D-06.
 Requested convergence on             energy=1.00D-06.
 No special actions if energy rises.

 Cycle   1  Pass 1  IDiag  1:
 E= -76.0107346852633    
 DIIS: error= 6.72D-04 at cycle   1 NSaved=   1.
 NSaved= 1 IEnMin= 1 EnMin= -76.0107346852633     IErMin= 1 ErrMin= 6.72D-04
 ErrMax= 6.72D-04  0.00D+00 EMaxC= 1.00D-01 BMatC= 1.32D-05 BMatP= 1.32D-05
 IDIUse=3 WtCom= 9.93D-01 WtEn= 6.72D-03
 Coeff-Com:  0.100D+01
 Coeff-En:   0.100D+01
 Coeff:      0.100D+01
 Gap=     0.711 Goal=   None    Shift=    0.000
 RMSDP=1.53D-04 MaxDP=9.32D-04              OVMax= 1.01D-03

 Cycle   2  Pass 1  IDiag  1:
 E= -76.0107459917670     Delta-E=       -0.000011306504 Rises=F Damp=F
 DIIS: error= 1.51D-04 at cycle   2 NSaved=   2.
 NSaved= 2 IEnMin= 2 EnMin= -76.0107459917670     IErMin= 2 ErrMin= 1.51D-04
 ErrMax= 1.51D-04  0.00D+00 EMaxC= 1.00D-01 BMatC= 4.84D-07 BMatP= 1.32D-05
 IDIUse=3 WtCom= 9.98D-01 WtEn= 1.51D-03
 Coeff-Com: -0.184D-01 0.102D+01
 Coeff-En:   0.000D+00 0.100D+01
 Coeff:     -0.184D-01 0.102D+01
 Gap=     0.711 Goal=   None    Shift=    0.000
 RMSDP=3.79D-05 MaxDP=1.89D-04 DE=-1.13D-05 OVMax= 2.83D-04

 Cycle   3  Pass 1  IDiag  1:
 E= -76.0107464373704     Delta-E=       -0.000000445603 Rises=F Damp=F
 DIIS: error= 6.40D-05 at cycle   3 NSaved=   3.
 NSaved= 3 IEnMin= 3 EnMin= -76.0107464373704     IErMin= 3 ErrMin= 6.40D-05
 ErrMax= 6.40D-05  0.00D+00 EMaxC= 1.00D-01 BMatC= 9.01D-08 BMatP= 4.84D-07
 IDIUse=1 WtCom= 1.00D+00 WtEn= 0.00D+00
 Coeff-Com: -0.422D-01 0.242D+00 0.801D+00
 Coeff:     -0.422D-01 0.242D+00 0.801D+00
 Gap=     0.711 Goal=   None    Shift=    0.000
 RMSDP=1.03D-05 MaxDP=6.87D-05 DE=-4.46D-07 OVMax= 7.39D-05

 Cycle   4  Pass 1  IDiag  1:
 E= -76.0107465020979     Delta-E=       -0.000000064727 Rises=F Damp=F
 DIIS: error= 1.80D-05 at cycle   4 NSaved=   4.
 NSaved= 4 IEnMin= 4 EnMin= -76.0107465020979     IErMin= 4 ErrMin= 1.80D-05
 ErrMax= 1.80D-05  0.00D+00 EMaxC= 1.00D-01 BMatC= 2.94D-09 BMatP= 9.01D-08
 IDIUse=1 WtCom= 1.00D+00 WtEn= 0.00D+00
 Coeff-Com: -0.493D-02-0.337D-01 0.951D-01 0.943D+00
 Coeff:     -0.493D-02-0.337D-01 0.951D-01 0.943D+00
 Gap=     0.711 Goal=   None    Shift=    0.000
 RMSDP=2.98D-06 MaxDP=1.75D-05 DE=-6.47D-08 OVMax= 2.90D-05

 Cycle   5  Pass 1  IDiag  1:
 E= -76.0107465054460     Delta-E=       -0.000000003348 Rises=F Damp=F
 DIIS: error= 3.04D-06 at cycle   5 NSaved=   5.
 NSaved= 5 IEnMin= 5 EnMin= -76.0107465054460     IErMin= 5 ErrMin= 3.04D-06
 ErrMax= 3.04D-06  0.00D+00 EMaxC= 1.00D-01 BMatC= 9.83D-11 BMatP= 2.94D-09
 IDIUse=1 WtCom= 1.00D+00 WtEn= 0.00D+00
 Coeff-Com:  0.229D-02 0.490D-02-0.551D-01-0.234D+00 0.128D+01
 Coeff:      0.229D-02 0.490D-02-0.551D-01-0.234D+00 0.128D+01
 Gap=     0.711 Goal=   None    Shift=    0.000
 RMSDP=9.25D-07 MaxDP=3.84D-06 DE=-3.35D-09 OVMax= 9.88D-06

 Cycle   6  Pass 1  IDiag  1:
 E= -76.0107465056582     Delta-E=       -0.000000000212 Rises=F Damp=F
 DIIS: error= 6.07D-07 at cycle   6 NSaved=   6.
 NSaved= 6 IEnMin= 6 EnMin= -76.0107465056582     IErMin= 6 ErrMin= 6.07D-07
 ErrMax= 6.07D-07  0.00D+00 EMaxC= 1.00D-01 BMatC= 4.30D-12 BMatP= 9.83D-11
 IDIUse=1 WtCom= 1.00D+00 WtEn= 0.00D+00
 Coeff-Com: -0.960D-03-0.144D-02 0.227D-01 0.915D-01-0.651D+00 0.154D+01
 Coeff:     -0.960D-03-0.144D-02 0.227D-01 0.915D-01-0.651D+00 0.154D+01
 Gap=     0.711 Goal=   None    Shift=    0.000
 RMSDP=3.24D-07 MaxDP=1.65D-06 DE=-2.12D-10 OVMax= 3.29D-06

 Cycle   7  Pass 1  IDiag  1:
 E= -76.0107465056726     Delta-E=       -0.000000000014 Rises=F Damp=F
 DIIS: error= 6.49D-08 at cycle   7 NSaved=   7.
 NSaved= 7 IEnMin= 7 EnMin= -76.0107465056726     IErMin= 7 ErrMin= 6.49D-08
 ErrMax= 6.49D-08  0.00D+00 EMaxC= 1.00D-01 BMatC= 5.51D-14 BMatP= 4.30D-12
 IDIUse=1 WtCom= 1.00D+00 WtEn= 0.00D+00
 Coeff-Com:  0.141D-03 0.246D-03-0.342D-02-0.150D-01 0.111D+00-0.341D+00
 Coeff-Com:  0.125D+01
 Coeff:      0.141D-03 0.246D-03-0.342D-02-0.150D-01 0.111D+00-0.341D+00
 Coeff:      0.125D+01
 Gap=     0.711 Goal=   None    Shift=    0.000
 RMSDP=2.57D-08 MaxDP=1.88D-07 DE=-1.43D-11 OVMax= 2.44D-07

 Cycle   8  Pass 1  IDiag  1:
 E= -76.0107465056727     Delta-E=       -0.000000000000 Rises=F Damp=F
 DIIS: error= 1.11D-08 at cycle   8 NSaved=   8.
 NSaved= 8 IEnMin= 8 EnMin= -76.0107465056727     IErMin= 8 ErrMin= 1.11D-08
 ErrMax= 1.11D-08  0.00D+00 EMaxC= 1.00D-01 BMatC= 1.08D-15 BMatP= 5.51D-14
 IDIUse=1 WtCom= 1.00D+00 WtEn= 0.00D+00
 Coeff-Com: -0.276D-04-0.592D-04 0.729D-03 0.307D-02-0.235D-01 0.803D-01
 Coeff-Com: -0.377D+00 0.132D+01
 Coeff:     -0.276D-04-0.592D-04 0.729D-03 0.307D-02-0.235D-01 0.803D-01
 Coeff:     -0.377D+00 0.132D+01
 Gap=     0.711 Goal=   None    Shift=    0.000
 RMSDP=2.33D-09 MaxDP=1.66D-08 DE=-1.71D-13 OVMax= 1.96D-08

 SCF Done:  E(RHF) =  -76.0107465057     A.U. after    8 cycles
            NFock=  8  Conv=0.23D-08     -V/T= 2.0020
 KE= 7.585967580689D+01 PE=-1.990836825054D+02 EE= 3.792468629514D+01
 Leave Link  502 at Sun Jan 19 22:46:48 2025, MaxMem=  1258291200 cpu:               0.3 elap:               0.1
 (Enter /apl/gaussian/16c02/g16/l701.exe)
 ... and contract with generalized density number  0.
 Compute integral first derivatives.
 Leave Link  701 at Sun Jan 19 22:46:48 2025, MaxMem=  1258291200 cpu:               0.4 elap:               0.1
 (Enter /apl/gaussian/16c02/g16/l702.exe)
 L702 exits ... SP integral derivatives will be done elsewhere.
 Leave Link  702 at Sun Jan 19 22:46:48 2025, MaxMem=  1258291200 cpu:               0.0 elap:               0.0
 (Enter /apl/gaussian/16c02/g16/l703.exe)
 Integral derivatives from FoFJK, PRISM(SPDF).
 Compute integral first derivatives, UseDBF=F ICtDFT=           0.
 Calling FoFJK, ICntrl=      2127 FMM=F ISym2X=1 I1Cent= 0 IOpClX= 0 NMat=1 NMatS=1 NMatT=0.
 FoFJK:  IHMeth= 1 ICntrl=    2127 DoSepK=F KAlg= 0 I1Cent=           0 FoldK=F
 IRaf=         0 NMat=       1 IRICut=       1 DoRegI=T DoRafI=F ISym2E= 1 IDoP0=0 IntGTp=1.
 FoFCou: FMM=F IPFlag=           0 FMFlag=      100000 FMFlg1=         800
         NFxFlg=           0 DoJE=F BraDBF=F KetDBF=F FulRan=T
         wScrn=  0.000000 ICntrl=      2127 IOpCl=  0 I1Cent=           0 NGrid=           0
         NMat0=    1 NMatS0=      1 NMatT0=    0 NMatD0=    1 NMtDS0=    0 NMtDT0=    0
 Petite list used in FoFCou.
 Leave Link  703 at Sun Jan 19 22:46:48 2025, MaxMem=  1258291200 cpu:               0.5 elap:               0.1
 (Enter /apl/gaussian/16c02/g16/l716.exe)
 Dipole        =-7.18356252D-17 0.00000000D+00-8.65239545D-01
 ***** Axes restored to original set *****
 -------------------------------------------------------------------
 Center     Atomic                   Forces (Hartrees/Bohr)
 Number     Number              X              Y              Z
 -------------------------------------------------------------------
      1        8          -0.000000000    0.000048266   -0.000000000
      2        1          -0.000024931   -0.000024133    0.000000000
      3        1           0.000024931   -0.000024133    0.000000000
 -------------------------------------------------------------------
 Cartesian Forces:  Max     0.000048266 RMS     0.000022943
 Leave Link  716 at Sun Jan 19 22:46:48 2025, MaxMem=  1258291200 cpu:               0.0 elap:               0.0
 (Enter /apl/gaussian/16c02/g16/l103.exe)

 GradGradGradGradGradGradGradGradGradGradGradGradGradGradGradGradGradGrad
 Berny optimization.
 Using GEDIIS/GDIIS optimizer.
 FormGI is forming the generalized inverse of G from B-inverse, IUseBI=4.
 Internal  Forces:  Max     0.000061405 RMS     0.000035709
 Search for a local minimum.
 Step number   3 out of a maximum of   20
 All quantities printed in internal units (Hartrees-Bohrs-Radians)
 RMS Force = .35709D-04 SwitMx=.10000D-02 MixMth= 2
 Mixed Optimization -- En-DIIS/RFO-DIIS
 Update second derivatives using D2CorX and points    1    2    3
 DE= -4.27D-05 DEPred=-4.45D-05 R= 9.61D-01
 TightC=F SS=  1.41D+00  RLast= 1.85D-02 DXNew= 5.0454D-01 5.5359D-02
 Trust test= 9.61D-01 RLast= 1.85D-02 DXMaxT set to 3.00D-01
 The second derivative matrix:
                          R1        R2        A1
           R1           0.55954
           R2           0.01854   0.55954
           A1           0.03516   0.03516   0.19076
 ITU=  1  1  0
 Use linear search instead of GDIIS.
     Eigenvalues ---    0.18448   0.54101   0.58436
 RFO step:  Lambda= 0.00000000D+00 EMin= 1.84479734D-01
 Quartic linear search produced a step of  0.01364.
 Iteration  1 RMS(Cart)=  0.00017896 RMS(Int)=  0.00000002
 Iteration  2 RMS(Cart)=  0.00000002 RMS(Int)=  0.00000000
 ITry= 1 IFail=0 DXMaxC= 1.70D-04 DCOld= 1.00D+10 DXMaxT= 3.00D-01 DXLimC= 3.00D+00 Rises=F
 ClnCor:  largest displacement from symmetrization is 2.22D-16 for atom     3.
 Variable       Old X    -DE/DX   Delta X   Delta X   Delta X     New X
                                 (Linear)    (Quad)   (Total)
    R1        1.79018   0.00001   0.00005  -0.00006  -0.00001   1.79017
    R2        1.79018   0.00001   0.00005  -0.00006  -0.00001   1.79017
    A1        1.84100   0.00006   0.00024   0.00009   0.00033   1.84132
         Item               Value     Threshold  Converged?
 Maximum Force            0.000061     0.000450     YES
 RMS     Force            0.000036     0.000300     YES
 Maximum Displacement     0.000170     0.001800     YES
 RMS     Displacement     0.000179     0.001200     YES
 Predicted change in Energy=-9.947841D-09
 Optimization completed.
    -- Stationary point found.
                           ----------------------------
                           !   Optimized Parameters   !
                           ! (Angstroms and Degrees)  !
 --------------------------                            --------------------------
 ! Name  Definition              Value          Derivative Info.                !
 --------------------------------------------------------------------------------
 ! R1    R(1,2)                  0.9473         -DE/DX =    0.0                 !
 ! R2    R(1,3)                  0.9473         -DE/DX =    0.0                 !
 ! A1    A(2,1,3)              105.4812         -DE/DX =    0.0001              !
 --------------------------------------------------------------------------------
 Lowest energy point so far.  Saving SCF results.
 Largest change from initial coordinates is atom    2       0.027 Angstoms.
 GradGradGradGradGradGradGradGradGradGradGradGradGradGradGradGradGradGrad

 Leave Link  103 at Sun Jan 19 22:46:48 2025, MaxMem=  1258291200 cpu:               0.0 elap:               0.0
 (Enter /apl/gaussian/16c02/g16/l202.exe)
                          Input orientation:                          
 ---------------------------------------------------------------------
 Center     Atomic      Atomic             Coordinates (Angstroms)
 Number     Number       Type             X           Y           Z
 ---------------------------------------------------------------------
      1          8           0       -0.000000   -0.031288   -0.000000
      2          1           0       -0.753977    0.542244    0.000000
      3          1           0        0.753977    0.542244   -0.000000
 ---------------------------------------------------------------------
                    Distance matrix (angstroms):
                    1          2          3
     1  O    0.000000
     2  H    0.947322   0.000000
     3  H    0.947322   1.507953   0.000000
 Stoichiometry    H2O
 Framework group  C2V[C2(O),SGV(H2)]
 Deg. of freedom     2
 Full point group                 C2V     NOp   4
 RotChk:  IX=0 Diff= 1.09D-15
 Largest Abelian subgroup         C2V     NOp   4
 Largest concise Abelian subgroup C2      NOp   2
                         Standard orientation:                         
 ---------------------------------------------------------------------
 Center     Atomic      Atomic             Coordinates (Angstroms)
 Number     Number       Type             X           Y           Z
 ---------------------------------------------------------------------
      1          8           0        0.000000    0.000000    0.114706
      2          1           0        0.000000    0.753977   -0.458826
      3          1           0       -0.000000   -0.753977   -0.458826
 ---------------------------------------------------------------------
 Rotational constants (GHZ):         858.2864990         441.0484277         291.3382094
 Leave Link  202 at Sun Jan 19 22:46:48 2025, MaxMem=  1258291200 cpu:               0.0 elap:               0.0
 (Enter /apl/gaussian/16c02/g16/l601.exe)
 Copying SCF densities to generalized density rwf, IOpCl= 0 IROHF=0.

 **********************************************************************

            Population analysis using the SCF Density.

 **********************************************************************

 Orbital symmetries:
       Occupied  (A1) (A1) (B2) (A1) (B1)
       Virtual   (A1) (B2) (B2) (A1) (B1) (A1) (B2) (A1) (A1) (A2)
                 (B1) (A1) (B2) (A1)
 The electronic state is 1-A1.
 Alpha  occ. eigenvalues --  -20.55789  -1.34615  -0.71423  -0.57084  -0.49822
 Alpha virt. eigenvalues --    0.21302   0.30687   1.03161   1.13341   1.16802
 Alpha virt. eigenvalues --    1.17853   1.38510   1.43126   2.02051   2.03059
 Alpha virt. eigenvalues --    2.06721   2.63561   2.96577   3.97767
          Condensed to atoms (all electrons):
               1          2          3
     1  O    8.332873   0.267924   0.267924
     2  H    0.267924   0.316206  -0.018492
     3  H    0.267924  -0.018492   0.316206
 Mulliken charges:
               1
     1  O   -0.868722
     2  H    0.434361
     3  H    0.434361
 Sum of Mulliken charges =  -0.00000
 Mulliken charges with hydrogens summed into heavy atoms:
               1
     1  O   -0.000000
 Electronic spatial extent (au):  <R**2>=             18.8111
 Charge=             -0.0000 electrons
 Dipole moment (field-independent basis, Debye):
    X=             -0.0000    Y=             -0.0000    Z=             -2.1992  Tot=              2.1992
 Quadrupole moment (field-independent basis, Debye-Ang):
   XX=             -7.2057   YY=             -4.1063   ZZ=             -6.0005
   XY=              0.0000   XZ=              0.0000   YZ=              0.0000
 Traceless Quadrupole moment (field-independent basis, Debye-Ang):
   XX=             -1.4349   YY=              1.6645   ZZ=             -0.2296
   XY=              0.0000   XZ=              0.0000   YZ=              0.0000
 Octapole moment (field-independent basis, Debye-Ang**2):
  XXX=              0.0000  YYY=              0.0000  ZZZ=             -1.4307  XYY=             -0.0000
  XXY=              0.0000  XXZ=             -0.3873  XZZ=             -0.0000  YZZ=             -0.0000
  YYZ=             -1.3547  XYZ=             -0.0000
 Hexadecapole moment (field-independent basis, Debye-Ang**3):
 XXXX=             -5.1841 YYYY=             -5.3641 ZZZZ=             -5.9896 XXXY=             -0.0000
 XXXZ=             -0.0000 YYYX=              0.0000 YYYZ=             -0.0000 ZZZX=             -0.0000
 ZZZY=             -0.0000 XXYY=             -2.0168 XXZZ=             -1.9087 YYZZ=             -1.5810
 XXYZ=              0.0000 YYXZ=              0.0000 ZZXY=              0.0000
 N-N= 9.288573897728D+00 E-N=-1.990836825458D+02  KE= 7.585967580689D+01
 Symmetry A1   KE= 6.776040913338D+01
 Symmetry A2   KE= 5.064292521180D-35
 Symmetry B1   KE= 4.551620667697D+00
 Symmetry B2   KE= 3.547646005813D+00
 No NMR shielding tensors so no spin-rotation constants.
 Leave Link  601 at Sun Jan 19 22:46:48 2025, MaxMem=  1258291200 cpu:               0.4 elap:               0.1
 (Enter /apl/gaussian/16c02/g16/l9999.exe)
 Unable to Open any file for archive entry.
 1\1\GINC-CCC131\FOpt\RHF\6-31G(d)\H2O1\ROOT\19-Jan-2025\0\\#P HF/6-31G
 (d) Opt\\water\\0,1\O,0.,-0.0312879449,0.\H,-0.7539766412,0.5422439724
 ,0.\H,0.7539766412,0.5422439724,0.\\Version=ES64L-G16RevC.02\State=1-A
 1\HF=-76.0107465\RMSD=2.331e-09\RMSF=2.294e-05\Dipole=0.,0.8652395,0.\
 Quadrupole=1.2375111,-0.1707251,-1.066786,0.,0.,0.\PG=C02V [C2(O1),SGV
 (H2)]\\@
 The archive entry for this job was punched.


 QUANTUM MECHANICS IS BOHRING -- M.S. GORDON
 Job cpu time:       0 days  0 hours  0 minutes  8.2 seconds.
 Elapsed time:       0 days  0 hours  0 minutes  2.2 seconds.
 File lengths (MBytes):  RWF=      6 Int=      0 D2E=      0 Chk=      1 Scr=      1
 Normal termination of Gaussian 16 at Sun Jan 19 22:46:48 2025.
