 Entering Gaussian System, Link 0=/apl/gaussian/16c02/g16/._.g16
 Initial command:
 /apl/gaussian/16c02/g16/l1.exe "/lwork/users/sw6/8048334.ccpbs1/gaussian/Gau-3302615.inp" -scrdir="/lwork/users/sw6/8048334.ccpbs1/gaussian/"
 Default CPUs for threads: 120,121,122,123,124,125,126,127
 Default is to use a total of   8 processors:
                                8 via shared-memory
                                1 via Linda
 Entering Link 1 = /apl/gaussian/16c02/g16/l1.exe PID=   3302616.
  
 Copyright (c) 1988-2021, Gaussian, Inc.  All Rights Reserved.
  
 This is part of the Gaussian(R) 16 program.  It is based on
 the Gaussian(R) 09 system (copyright 2009, Gaussian, Inc.),
 the Gaussian(R) 03 system (copyright 2003, Gaussian, Inc.),
 the Gaussian(R) 98 system (copyright 1998, Gaussian, Inc.),
 the Gaussian(R) 94 system (copyright 1995, Gaussian, Inc.),
 the Gaussian 92(TM) system (copyright 1992, Gaussian, Inc.),
 the Gaussian 90(TM) system (copyright 1990, Gaussian, Inc.),
 the Gaussian 88(TM) system (copyright 1988, Gaussian, Inc.),
 the Gaussian 86(TM) system (copyright 1986, Carnegie Mellon
 University), and the Gaussian 82(TM) system (copyright 1983,
 Carnegie Mellon University). Gaussian is a federally registered
 trademark of Gaussian, Inc.
  
 This software contains proprietary and confidential information,
 including trade secrets, belonging to Gaussian, Inc.
  
 This software is provided under written license and may be
 used, copied, transmitted, or stored only in accord with that
 written license.
  
 The following legend is applicable only to US Government
 contracts under FAR:
  
                    RESTRICTED RIGHTS LEGEND
  
 Use, reproduction and disclosure by the US Government is
 subject to restrictions as set forth in subparagraphs (a)
 and (c) of the Commercial Computer Software - Restricted
 Rights clause in FAR 52.227-19.
  
 Gaussian, Inc.
 340 Quinnipiac St., Bldg. 40, Wallingford CT 06492
  
  
 ---------------------------------------------------------------
 Warning -- This program may not be used in any manner that
 competes with the business of Gaussian, Inc. or will provide
 assistance to any competitor of Gaussian, Inc.  The licensee
 of this program is prohibited from giving any competitor of
 Gaussian, Inc. access to this program.  By using this program,
 the user acknowledges that Gaussian, Inc. is engaged in the
 business of creating and licensing software in the field of
 computational chemistry and represents and warrants to the
 licensee that it is not a competitor of Gaussian, Inc. and that
 it will not use this program in any manner prohibited above.
 ---------------------------------------------------------------
  

 Cite this work as:
 Gaussian 16, Revision C.02,
 M. J. Frisch, G. W. Trucks, H. B. Schlegel, G. E. Scuseria, 
 M. A. Robb, J. R. Cheeseman, G. Scalmani, V. Barone, 
 G. A. Petersson, H. Nakatsuji, X. Li, M. Caricato, A. V. Marenich, 
 J. Bloino, B. G. Janesko, R. Gomperts, B. Mennucci, H. P. Hratchian, 
 J. V. Ortiz, A. F. Izmaylov, J. L. Sonnenberg, D. Williams-Young, 
 F. Ding, F. Lipparini, F. Egidi, J. Goings, B. Peng, A. Petrone, 
 T. Henderson, D. Ranasinghe, V. G. Zakrzewski, J. Gao, N. Rega, 
 G. Zheng, W. Liang, M. Hada, M. Ehara, K. Toyota, R. Fukuda, 
 J. Hasegawa, M. Ishida, T. Nakajima, Y. Honda, O. Kitao, H. Nakai, 
 T. Vreven, K. Throssell, J. A. Montgomery, Jr., J. E. Peralta, 
 F. Ogliaro, M. J. Bearpark, J. J. Heyd, E. N. Brothers, K. N. Kudin, 
 V. N. Staroverov, T. A. Keith, R. Kobayashi, J. Normand, 
 K. Raghavachari, A. P. Rendell, J. C. Burant, S. S. Iyengar, 
 J. Tomasi, M. Cossi, J. M. Millam, M. Klene, C. Adamo, R. Cammi, 
 J. W. Ochterski, R. L. Martin, K. Morokuma, O. Farkas, 
 J. B. Foresman, and D. J. Fox, Gaussian, Inc., Wallingford CT, 2019.
 
 ******************************************
 Gaussian 16:  ES64L-G16RevC.02  7-Dec-2021
                19-Jan-2025 
 ******************************************
 %Chk=hf_631gd.chk
 %mem=9600MB
 SetSPE:  set environment variable "OMP_PROC_BIND" = "true"
 SetSPE:  set environment variable "OMP_PLACES" = "{120},{121},{122},{123},{124},{125},{126},{127}"
 --------------------------------------------
 #P HF/6-31G(d) Freq Geom=AllCheck Guess=Read
 --------------------------------------------
 1/10=4,29=7,30=1,38=1/1,3;
 2/12=2,40=1/2;
 3/5=1,6=6,7=1,11=9,14=-4,25=1,30=1,71=2,116=-2,140=1/1,2,3;
 4/5=1/1;
 5/5=2,38=6,98=1/2;
 8/6=4,10=90,11=11/1;
 10/13=10,15=4/2;
 11/6=3,8=1,9=11,15=111,16=1/1,2,10;
 10/6=1/2;
 6/7=2,8=2,9=2,10=2,28=1/1;
 7/8=1,10=1,25=1/1,2,3,16;
 1/10=4,30=1/3;
 99//99;
 Leave Link    1 at Sun Jan 19 23:06:25 2025, MaxMem=  1258291200 cpu:               0.1 elap:               0.1
 (Enter /apl/gaussian/16c02/g16/l101.exe)
 Structure from the checkpoint file:  "hf_631gd.chk"
 -----
 water
 -----
 Charge =  0 Multiplicity = 1
 Redundant internal coordinates found in file.  (old form).
 O,0,0.,-0.0312879449,0.
 H,0,-0.7539766412,0.5422439724,0.
 H,0,0.7539766412,0.5422439724,0.
 Recover connectivity data from disk.
 ITRead=  0  0  0
 MicOpt= -1 -1 -1
 NAtoms=      3 NQM=        3 NQMF=       0 NMMI=      0 NMMIF=      0
                NMic=       0 NMicF=      0.
                    Isotopes and Nuclear Properties:
 (Nuclear quadrupole moments (NQMom) in fm**2, nuclear magnetic moments (NMagM)
  in nuclear magnetons)

  Atom         1           2           3
 IAtWgt=          16           1           1
 AtmWgt=  15.9949146   1.0078250   1.0078250
 NucSpn=           0           1           1
 AtZEff=   5.6000000   1.0000000   1.0000000
 NQMom=    0.0000000   0.0000000   0.0000000
 NMagM=    0.0000000   2.7928460   2.7928460
 AtZNuc=   8.0000000   1.0000000   1.0000000
 Leave Link  101 at Sun Jan 19 23:06:25 2025, MaxMem=  1258291200 cpu:               0.1 elap:               0.2
 (Enter /apl/gaussian/16c02/g16/l103.exe)

 GradGradGradGradGradGradGradGradGradGradGradGradGradGradGradGradGradGrad
 Berny optimization.
 Initialization pass.
                           ----------------------------
                           !    Initial Parameters    !
                           ! (Angstroms and Degrees)  !
 --------------------------                            --------------------------
 ! Name  Definition              Value          Derivative Info.                !
 --------------------------------------------------------------------------------
 ! R1    R(1,2)                  0.9473         calculate D2E/DX2 analytically  !
 ! R2    R(1,3)                  0.9473         calculate D2E/DX2 analytically  !
 ! A1    A(2,1,3)              105.4812         calculate D2E/DX2 analytically  !
 --------------------------------------------------------------------------------
 Trust Radius=3.00D-01 FncErr=1.00D-07 GrdErr=1.00D-07 EigMax=2.50D+02 EigMin=1.00D-04
 Number of steps in this run=      2 maximum allowed number of steps=      2.
 GradGradGradGradGradGradGradGradGradGradGradGradGradGradGradGradGradGrad

 Leave Link  103 at Sun Jan 19 23:06:26 2025, MaxMem=  1258291200 cpu:               0.1 elap:               0.1
 (Enter /apl/gaussian/16c02/g16/l202.exe)
                          Input orientation:                          
 ---------------------------------------------------------------------
 Center     Atomic      Atomic             Coordinates (Angstroms)
 Number     Number       Type             X           Y           Z
 ---------------------------------------------------------------------
      1          8           0       -0.000000   -0.031288   -0.000000
      2          1           0       -0.753977    0.542244    0.000000
      3          1           0        0.753977    0.542244   -0.000000
 ---------------------------------------------------------------------
                    Distance matrix (angstroms):
                    1          2          3
     1  O    0.000000
     2  H    0.947322   0.000000
     3  H    0.947322   1.507953   0.000000
 Stoichiometry    H2O
 Framework group  C2V[C2(O),SGV(H2)]
 Deg. of freedom     2
 Full point group                 C2V     NOp   4
 RotChk:  IX=0 Diff= 1.34D-17
 Largest Abelian subgroup         C2V     NOp   4
 Largest concise Abelian subgroup C2      NOp   2
                         Standard orientation:                         
 ---------------------------------------------------------------------
 Center     Atomic      Atomic             Coordinates (Angstroms)
 Number     Number       Type             X           Y           Z
 ---------------------------------------------------------------------
      1          8           0        0.000000    0.000000    0.114706
      2          1           0        0.000000    0.753977   -0.458826
      3          1           0       -0.000000   -0.753977   -0.458826
 ---------------------------------------------------------------------
 Rotational constants (GHZ):         858.2864990         441.0484277         291.3382094
 Leave Link  202 at Sun Jan 19 23:06:26 2025, MaxMem=  1258291200 cpu:               0.0 elap:               0.1
 (Enter /apl/gaussian/16c02/g16/l301.exe)
 Standard basis: 6-31G(d) (6D, 7F)
 Ernie: Thresh=  0.10000D-02 Tol=  0.10000D-05 Strict=F.
 There are    10 symmetry adapted cartesian basis functions of A1  symmetry.
 There are     1 symmetry adapted cartesian basis functions of A2  symmetry.
 There are     3 symmetry adapted cartesian basis functions of B1  symmetry.
 There are     5 symmetry adapted cartesian basis functions of B2  symmetry.
 There are    10 symmetry adapted basis functions of A1  symmetry.
 There are     1 symmetry adapted basis functions of A2  symmetry.
 There are     3 symmetry adapted basis functions of B1  symmetry.
 There are     5 symmetry adapted basis functions of B2  symmetry.
    19 basis functions,    36 primitive gaussians,    19 cartesian basis functions
     5 alpha electrons        5 beta electrons
       nuclear repulsion energy         9.2885738977 Hartrees.
 IExCor=    0 DFT=F Ex=HF Corr=None ExCW=0 ScaHFX=  1.000000
 ScaDFX=  1.000000  1.000000  1.000000  1.000000 ScalE2=  1.000000  1.000000
 IRadAn=      5 IRanWt=     -1 IRanGd=            0 ICorTp=0 IEmpDi=  4
 NAtoms=    3 NActive=    3 NUniq=    2 SFac= 2.25D+00 NAtFMM=   60 NAOKFM=F Big=F
 Integral buffers will be    131072 words long.
 Raffenetti 1 integral format.
 Two-electron integral symmetry is turned on.
 Leave Link  301 at Sun Jan 19 23:06:26 2025, MaxMem=  1258291200 cpu:               0.1 elap:               0.1
 (Enter /apl/gaussian/16c02/g16/l302.exe)
 NPDir=0 NMtPBC=     1 NCelOv=     1 NCel=       1 NClECP=     1 NCelD=      1
         NCelK=      1 NCelE2=     1 NClLst=     1 CellRange=     0.0.
 One-electron integrals computed using PRISM.
 One-electron integral symmetry used in STVInt
 NBasis=    19 RedAO= T EigKep=  2.19D-02  NBF=    10     1     3     5
 NBsUse=    19 1.00D-06 EigRej= -1.00D+00 NBFU=    10     1     3     5
 Leave Link  302 at Sun Jan 19 23:06:26 2025, MaxMem=  1258291200 cpu:               0.3 elap:               0.1
 (Enter /apl/gaussian/16c02/g16/l303.exe)
 DipDrv:  MaxL=1.
 Leave Link  303 at Sun Jan 19 23:06:26 2025, MaxMem=  1258291200 cpu:               0.1 elap:               0.1
 (Enter /apl/gaussian/16c02/g16/l401.exe)
 Initial guess from the checkpoint file:  "hf_631gd.chk"
 B after Tr=    -0.000000   -0.000000   -0.000000
         Rot=    1.000000    0.000000   -0.000000    0.000000 Ang=   0.00 deg.
 Guess basis will be translated and rotated to current coordinates.
 JPrj=2 DoOrth=T DoCkMO=T.
 Initial guess orbital symmetries:
       Occupied  (A1) (A1) (B2) (A1) (B1)
       Virtual   (A1) (B2) (B2) (A1) (B1) (A1) (B2) (A1) (A1) (A2)
                 (B1) (A1) (B2) (A1)
 The electronic state of the initial guess is 1-A1.
 Leave Link  401 at Sun Jan 19 23:06:27 2025, MaxMem=  1258291200 cpu:               0.1 elap:               0.1
 (Enter /apl/gaussian/16c02/g16/l502.exe)
 Keep R1 ints in memory in symmetry-blocked form, NReq=1666939.
 FoFCou: FMM=F IPFlag=           0 FMFlag=           0 FMFlg1=           0
         NFxFlg=           0 DoJE=F BraDBF=F KetDBF=F FulRan=T
         wScrn=  0.000000 ICntrl=       600 IOpCl=  0 I1Cent=           0 NGrid=           0
         NMat0=    1 NMatS0=    190 NMatT0=    0 NMatD0=    1 NMtDS0=    0 NMtDT0=    0
 Petite list used in FoFCou.
 Closed shell SCF:
 Using DIIS extrapolation, IDIIS=  1040.
 NGot=  1258291200 LenX=  1258283165 LenY=  1258282283
 Requested convergence on RMS density matrix=1.00D-08 within 128 cycles.
 Requested convergence on MAX density matrix=1.00D-06.
 Requested convergence on             energy=1.00D-06.
 No special actions if energy rises.

 Cycle   1  Pass 1  IDiag  1:
 E= -76.0107465056725    
 DIIS: error= 6.34D-10 at cycle   1 NSaved=   1.
 NSaved= 1 IEnMin= 1 EnMin= -76.0107465056725     IErMin= 1 ErrMin= 6.34D-10
 ErrMax= 6.34D-10  0.00D+00 EMaxC= 1.00D-01 BMatC= 3.85D-18 BMatP= 3.85D-18
 IDIUse=1 WtCom= 1.00D+00 WtEn= 0.00D+00
 Coeff-Com:  0.100D+01
 Coeff:      0.100D+01
 Gap=     0.711 Goal=   None    Shift=    0.000
 Skip diagonalization as Alpha Fock matrix is already diagonal.
 RMSDP=0.00D+00 MaxDP=0.00D+00              OVMax= 0.00D+00

 SCF Done:  E(RHF) =  -76.0107465057     A.U. after    1 cycles
            NFock=  1  Conv=0.00D+00     -V/T= 2.0020
 KE= 7.585967580689D+01 PE=-1.990836825458D+02 EE= 3.792468633548D+01
 Leave Link  502 at Sun Jan 19 23:06:27 2025, MaxMem=  1258291200 cpu:               0.4 elap:               0.2
 (Enter /apl/gaussian/16c02/g16/l801.exe)
 Range of M.O.s used for correlation:     1    19
 NBasis=    19 NAE=     5 NBE=     5 NFC=     0 NFV=     0
 NROrb=     19 NOA=     5 NOB=     5 NVA=    14 NVB=    14
 Leave Link  801 at Sun Jan 19 23:06:30 2025, MaxMem=  1258291200 cpu:               0.1 elap:               0.6
 (Enter /apl/gaussian/16c02/g16/l1002.exe)
 Minotr:  Closed shell wavefunction.
          Direct CPHF calculation.
          Differentiating once with respect to electric field.
                with respect to dipole field.
          Electric field/nuclear overlap derivatives assumed to be zero.
          Using symmetry in CPHF.
          Requested convergence is 1.0D-08 RMS, and 1.0D-07 maximum.
          Secondary convergence is 1.0D-12 RMS, and 1.0D-12 maximum.
          NewPWx=F KeepS1=T KeepF1=T KeepIn=T MapXYZ=F SortEE=F KeepMc=T.
 Keep R1 ints in memory in symmetry-blocked form, NReq=1667392.
 FoFCou: FMM=F IPFlag=           0 FMFlag=           0 FMFlg1=           0
         NFxFlg=           0 DoJE=F BraDBF=F KetDBF=F FulRan=T
         wScrn=  0.000000 ICntrl=       600 IOpCl=  0 I1Cent=           0 NGrid=           0
         NMat0=    1 NMatS0=    190 NMatT0=    0 NMatD0=    1 NMtDS0=    0 NMtDT0=    0
 Petite list used in FoFCou.
          MDV=    1258291200 using IRadAn=       1.
          Solving linear equations simultaneously, MaxMat=       0.
          There are     3 degrees of freedom in the 1st order CPHF.  IDoFFX=0 NUNeed=     3.
      3 vectors produced by pass  0 Test12= 2.33D-15 3.33D-08 XBig12= 1.15D+00 7.36D-01.
 AX will form     3 AO Fock derivatives at one time.
      3 vectors produced by pass  1 Test12= 2.33D-15 3.33D-08 XBig12= 5.13D-02 1.20D-01.
      3 vectors produced by pass  2 Test12= 2.33D-15 3.33D-08 XBig12= 6.16D-03 3.39D-02.
      3 vectors produced by pass  3 Test12= 2.33D-15 3.33D-08 XBig12= 2.39D-04 7.94D-03.
      3 vectors produced by pass  4 Test12= 2.33D-15 3.33D-08 XBig12= 2.26D-06 9.06D-04.
      3 vectors produced by pass  5 Test12= 2.33D-15 3.33D-08 XBig12= 1.88D-08 6.63D-05.
      3 vectors produced by pass  6 Test12= 2.33D-15 3.33D-08 XBig12= 2.29D-10 7.07D-06.
      2 vectors produced by pass  7 Test12= 2.33D-15 3.33D-08 XBig12= 1.31D-12 5.11D-07.
      1 vectors produced by pass  8 Test12= 2.33D-15 3.33D-08 XBig12= 6.60D-15 4.09D-08.
 InvSVY:  IOpt=1 It=  1 EMax= 1.20D-16
 Solved reduced A of dimension    24 with     3 vectors.
 End of Minotr F.D. properties file   721 does not exist.
 End of Minotr F.D. properties file   722 does not exist.
 End of Minotr F.D. properties file   788 does not exist.
 Leave Link 1002 at Sun Jan 19 23:06:31 2025, MaxMem=  1258291200 cpu:               0.5 elap:               0.2
 (Enter /apl/gaussian/16c02/g16/l1101.exe)
 Using compressed storage, NAtomX=     3.
 Will process      4 centers per pass.
 Leave Link 1101 at Sun Jan 19 23:06:34 2025, MaxMem=  1258291200 cpu:               1.0 elap:               3.8
 (Enter /apl/gaussian/16c02/g16/l1102.exe)
 Symmetrizing basis deriv contribution to polar:
 IMax=3 JMax=2 DiffMx= 0.00D+00
 Leave Link 1102 at Sun Jan 19 23:06:35 2025, MaxMem=  1258291200 cpu:               0.1 elap:               0.1
 (Enter /apl/gaussian/16c02/g16/l1110.exe)
 Forming Gx(P) for the SCF density, NAtomX=     3.
 Integral derivatives from FoFJK, PRISM(SPDF).
 Do as many integral derivatives as possible in FoFJK.
 G2DrvN: MDV=    1258290767.
 G2DrvN: will do     4 centers at a time, making    1 passes.
 PxScal for G2LodP:  IOpCl= 0 ISclPx=1 IMOff=     1 NMtTot=     4 NTT=     190 ScalPx= 1.00D+00
 Calling FoFCou, ICntrl=  3107 FMM=F I1Cent=   0 AccDes= 0.00D+00.
 FoFJK:  IHMeth= 1 ICntrl=    3107 DoSepK=F KAlg= 0 I1Cent=           0 FoldK=F
 IRaf=         0 NMat=       1 IRICut=       1 DoRegI=T DoRafI=F ISym2E= 1 IDoP0=0 IntGTp=1.
 FoFCou: FMM=F IPFlag=           0 FMFlag=      100000 FMFlg1=           0
         NFxFlg=           0 DoJE=F BraDBF=F KetDBF=F FulRan=T
         wScrn=  0.000000 ICntrl=      3107 IOpCl=  0 I1Cent=           0 NGrid=           0
         NMat0=    1 NMatS0=      1 NMatT0=    0 NMatD0=    4 NMtDS0=    3 NMtDT0=    0
 Petite list used in FoFCou.
 End of G2Drv F.D. properties file   721 does not exist.
 End of G2Drv F.D. properties file   722 does not exist.
 End of G2Drv F.D. properties file   788 does not exist.
 Leave Link 1110 at Sun Jan 19 23:06:40 2025, MaxMem=  1258291200 cpu:               1.0 elap:               1.8
 (Enter /apl/gaussian/16c02/g16/l1002.exe)
 Minotr:  Closed shell wavefunction.
          IDoAtm=111
          Direct CPHF calculation.
          Differentiating once with respect to electric field.
                with respect to dipole field.
          Differentiating once with respect to nuclear coordinates.
          Using symmetry in CPHF.
          Requested convergence is 1.0D-08 RMS, and 1.0D-07 maximum.
          Secondary convergence is 1.0D-12 RMS, and 1.0D-12 maximum.
          NewPWx=T KeepS1=F KeepF1=F KeepIn=T MapXYZ=F SortEE=F KeepMc=T.
 Keep R1 ints in memory in symmetry-blocked form, NReq=1667461.
 FoFCou: FMM=F IPFlag=           0 FMFlag=           0 FMFlg1=           0
         NFxFlg=           0 DoJE=F BraDBF=F KetDBF=F FulRan=T
         wScrn=  0.000000 ICntrl=       600 IOpCl=  0 I1Cent=           0 NGrid=           0
         NMat0=    1 NMatS0=    190 NMatT0=    0 NMatD0=    1 NMtDS0=    0 NMtDT0=    0
 Petite list used in FoFCou.
          MDV=    1258291200 using IRadAn=       1.
          Solving linear equations simultaneously, MaxMat=       0.
          There are     9 degrees of freedom in the 1st order CPHF.  IDoFFX=4 NUNeed=     9.
 Will reuse    3 saved solutions.
      6 vectors produced by pass  0 Test12= 7.78D-16 1.11D-08 XBig12= 3.62D-02 1.07D-01.
 AX will form     6 AO Fock derivatives at one time.
      6 vectors produced by pass  1 Test12= 7.78D-16 1.11D-08 XBig12= 4.24D-03 3.99D-02.
      6 vectors produced by pass  2 Test12= 7.78D-16 1.11D-08 XBig12= 2.02D-04 8.97D-03.
      6 vectors produced by pass  3 Test12= 7.78D-16 1.11D-08 XBig12= 1.17D-06 5.31D-04.
      6 vectors produced by pass  4 Test12= 7.78D-16 1.11D-08 XBig12= 6.21D-09 3.65D-05.
      6 vectors produced by pass  5 Test12= 7.78D-16 1.11D-08 XBig12= 1.57D-11 1.44D-06.
      2 vectors produced by pass  6 Test12= 7.78D-16 1.11D-08 XBig12= 6.91D-14 1.15D-07.
 InvSVY:  IOpt=1 It=  1 EMax= 2.22D-16
 Solved reduced A of dimension    38 with     6 vectors.
 FullF1:  Do perturbations      1 to       9.
 Isotropic polarizability for W=    0.000000        4.75 Bohr**3.
 FullF1:  Do perturbations      1 to       6.
 End of Minotr F.D. properties file   721 does not exist.
 End of Minotr F.D. properties file   722 does not exist.
 End of Minotr F.D. properties file   788 does not exist.
 Leave Link 1002 at Sun Jan 19 23:06:40 2025, MaxMem=  1258291200 cpu:               0.6 elap:               0.3
 (Enter /apl/gaussian/16c02/g16/l601.exe)
 Copying SCF densities to generalized density rwf, IOpCl= 0 IROHF=0.

 **********************************************************************

            Population analysis using the SCF Density.

 **********************************************************************

 Orbital symmetries:
       Occupied  (A1) (A1) (B2) (A1) (B1)
       Virtual   (A1) (B2) (B2) (A1) (B1) (A1) (B2) (A1) (A1) (A2)
                 (B1) (A1) (B2) (A1)
 The electronic state is 1-A1.
 Alpha  occ. eigenvalues --  -20.55789  -1.34615  -0.71423  -0.57084  -0.49822
 Alpha virt. eigenvalues --    0.21302   0.30687   1.03161   1.13341   1.16802
 Alpha virt. eigenvalues --    1.17853   1.38510   1.43126   2.02051   2.03059
 Alpha virt. eigenvalues --    2.06721   2.63561   2.96577   3.97767
          Condensed to atoms (all electrons):
               1          2          3
     1  O    8.332873   0.267924   0.267924
     2  H    0.267924   0.316206  -0.018492
     3  H    0.267924  -0.018492   0.316206
 Mulliken charges:
               1
     1  O   -0.868722
     2  H    0.434361
     3  H    0.434361
 Sum of Mulliken charges =  -0.00000
 Mulliken charges with hydrogens summed into heavy atoms:
               1
     1  O   -0.000000
 APT charges:
               1
     1  O   -0.600423
     2  H    0.300211
     3  H    0.300211
 Sum of APT charges =   0.00000
 APT charges with hydrogens summed into heavy atoms:
               1
     1  O    0.000000
 Electronic spatial extent (au):  <R**2>=             18.8111
 Charge=             -0.0000 electrons
 Dipole moment (field-independent basis, Debye):
    X=             -0.0000    Y=             -0.0000    Z=             -2.1992  Tot=              2.1992
 Quadrupole moment (field-independent basis, Debye-Ang):
   XX=             -7.2057   YY=             -4.1063   ZZ=             -6.0005
   XY=              0.0000   XZ=              0.0000   YZ=             -0.0000
 Traceless Quadrupole moment (field-independent basis, Debye-Ang):
   XX=             -1.4349   YY=              1.6645   ZZ=             -0.2296
   XY=              0.0000   XZ=              0.0000   YZ=             -0.0000
 Octapole moment (field-independent basis, Debye-Ang**2):
  XXX=              0.0000  YYY=              0.0000  ZZZ=             -1.4307  XYY=             -0.0000
  XXY=              0.0000  XXZ=             -0.3873  XZZ=             -0.0000  YZZ=             -0.0000
  YYZ=             -1.3547  XYZ=             -0.0000
 Hexadecapole moment (field-independent basis, Debye-Ang**3):
 XXXX=             -5.1841 YYYY=             -5.3641 ZZZZ=             -5.9896 XXXY=             -0.0000
 XXXZ=             -0.0000 YYYX=              0.0000 YYYZ=              0.0000 ZZZX=             -0.0000
 ZZZY=             -0.0000 XXYY=             -2.0168 XXZZ=             -1.9087 YYZZ=             -1.5810
 XXYZ=              0.0000 YYXZ=              0.0000 ZZXY=              0.0000
 N-N= 9.288573897724D+00 E-N=-1.990836825458D+02  KE= 7.585967580689D+01
 Symmetry A1   KE= 6.776040913338D+01
 Symmetry A2   KE= 5.064292521211D-35
 Symmetry B1   KE= 4.551620667696D+00
 Symmetry B2   KE= 3.547646005812D+00
  Exact polarizability:       2.778       0.000       6.678       0.000       0.000       4.809
 Approx polarizability:       2.363       0.000       5.340       0.000       0.000       4.006
 No NMR shielding tensors so no spin-rotation constants.
 Leave Link  601 at Sun Jan 19 23:06:40 2025, MaxMem=  1258291200 cpu:               0.4 elap:               0.1
 (Enter /apl/gaussian/16c02/g16/l701.exe)
 ... and contract with generalized density number  0.
 Compute integral second derivatives.
 Leave Link  701 at Sun Jan 19 23:06:41 2025, MaxMem=  1258291200 cpu:               0.6 elap:               0.1
 (Enter /apl/gaussian/16c02/g16/l702.exe)
 L702 exits ... SP integral derivatives will be done elsewhere.
 Leave Link  702 at Sun Jan 19 23:06:41 2025, MaxMem=  1258291200 cpu:               0.0 elap:               0.1
 (Enter /apl/gaussian/16c02/g16/l703.exe)
 Integral derivatives from FoFJK, PRISM(SPDF).
 Compute integral second derivatives, UseDBF=F ICtDFT=           0.
 Calling FoFJK, ICntrl=    100127 FMM=F ISym2X=1 I1Cent= 0 IOpClX= 0 NMat=1 NMatS=1 NMatT=0.
 FoFJK:  IHMeth= 1 ICntrl=  100127 DoSepK=F KAlg= 0 I1Cent=           0 FoldK=F
 IRaf=         0 NMat=       1 IRICut=       1 DoRegI=T DoRafI=F ISym2E= 1 IDoP0=0 IntGTp=1.
 FoFCou: FMM=F IPFlag=           0 FMFlag=      100000 FMFlg1=         800
         NFxFlg=           0 DoJE=F BraDBF=F KetDBF=F FulRan=T
         wScrn=  0.000000 ICntrl=    100127 IOpCl=  0 I1Cent=           0 NGrid=           0
         NMat0=    1 NMatS0=      1 NMatT0=    0 NMatD0=    1 NMtDS0=    0 NMtDT0=    0
 Petite list used in FoFCou.
 Leave Link  703 at Sun Jan 19 23:06:41 2025, MaxMem=  1258291200 cpu:               1.3 elap:               0.3
 (Enter /apl/gaussian/16c02/g16/l716.exe)
 Dipole        =-7.18356252D-17-3.51326247D-17-8.65239545D-01
 Polarizability= 2.77836623D+00 3.23216933D-16 6.67810704D+00
                 2.11571029D-16 1.11022302D-16 4.80851243D+00
 HyperPolar    = 3.15754648D-17-5.55204103D-16-1.53537654D-15
                -2.77879962D-15-2.69296207D-01-1.33241171D-15
                -1.87694472D+01-7.60086428D-16-1.67133296D-15
                -9.24762033D+00
 Full mass-weighted force constant matrix:
 Low frequencies ---  -21.4192   -8.9409   -0.0011    0.0019    0.0020   25.6388
 Low frequencies --- 1826.7716 4070.4769 4188.5883
 Diagonal vibrational polarizability:
        0.0000000       0.0890185       0.8943519
 Diagonal vibrational hyperpolarizability:
        0.0000000      -0.0000000      -7.1731878
 Harmonic frequencies (cm**-1), IR intensities (KM/Mole), Raman scattering
 activities (A**4/AMU), depolarization ratios for plane and unpolarized
 incident light, reduced masses (AMU), force constants (mDyne/A),
 and normal coordinates:
                      1                      2                      3
                     A1                     A1                     B2
 Frequencies --   1826.7716              4070.4769              4188.5883
 Red. masses --      1.0823                 1.0455                 1.0828
 Frc consts  --      2.1279                10.2066                11.1930
 IR Inten    --    107.2364                18.2055                58.0340
 Raman Activ --      5.7258                75.5313                39.1015
 Depolar (P) --      0.5299                 0.1830                 0.7500
 Depolar (U) --      0.6928                 0.3093                 0.8571
  Atom  AN      X      Y      Z        X      Y      Z        X      Y      Z
     1   8    -0.00   0.00  -0.07     0.00   0.00   0.05    -0.00  -0.07   0.00
     2   1     0.00   0.43   0.56     0.00   0.58  -0.40     0.00   0.56  -0.43
     3   1     0.00  -0.43   0.56    -0.00  -0.58  -0.40     0.00   0.56   0.43

 -------------------
 - Thermochemistry -
 -------------------
 Temperature   298.150 Kelvin.  Pressure   1.00000 Atm.
 Atom     1 has atomic number  8 and mass  15.99491
 Atom     2 has atomic number  1 and mass   1.00783
 Atom     3 has atomic number  1 and mass   1.00783
 Molecular mass:    18.01056 amu.
 Principal axes and moments of inertia in atomic units:
                           1         2         3
     Eigenvalues --     2.10273   4.09193   6.19466
           X            0.00000   0.00000   1.00000
           Y            1.00000   0.00000   0.00000
           Z           -0.00000   1.00000   0.00000
 This molecule is an asymmetric top.
 Rotational symmetry number  2.
 Rotational temperatures (Kelvin)     41.19126    21.16699    13.98203
 Rotational constants (GHZ):         858.28650   441.04843   291.33821
 Zero-point vibrational energy      60326.7 (Joules/Mol)
                                   14.41843 (Kcal/Mol)
 Vibrational temperatures:   2628.32  5856.51  6026.44
          (Kelvin)
 
 Zero-point correction=                           0.022977 (Hartree/Particle)
 Thermal correction to Energy=                    0.025811
 Thermal correction to Enthalpy=                  0.026755
 Thermal correction to Gibbs Free Energy=         0.005380
 Sum of electronic and zero-point Energies=            -75.987769
 Sum of electronic and thermal Energies=               -75.984935
 Sum of electronic and thermal Enthalpies=             -75.983991
 Sum of electronic and thermal Free Energies=          -76.005366
 
                     E (Thermal)             CV                S
                      KCal/Mol        Cal/Mol-Kelvin    Cal/Mol-Kelvin
 Total                   16.197              5.985             44.987
 Electronic               0.000              0.000              0.000
 Translational            0.889              2.981             34.608
 Rotational               0.889              2.981             10.376
 Vibrational             14.419              0.023              0.003
                       Q            Log10(Q)             Ln(Q)
 Total Bot       0.335126D-02         -2.474792         -5.698419
 Total V=0       0.124162D+09          8.093989         18.637099
 Vib (Bot)       0.269950D-10        -10.568717        -24.335370
 Vib (V=0)       0.100015D+01          0.000064          0.000148
 Electronic      0.100000D+01          0.000000          0.000000
 Translational   0.300431D+07          6.477745         14.915559
 Rotational      0.413219D+02          1.616180          3.721392
 
                                                                water
                                                             IR Spectrum
 
     4   4                                                                   1                                                       
     1   0                                                                   8                                                       
     8   7                                                                   2                                                       
     9   0                                                                   7                                                       
 
     X   X                                                                   X                                                       
     X   X                                                                   X                                                       
     X   X                                                                   X                                                       
     X                                                                       X                                                       
     X                                                                       X                                                       
     X                                                                       X                                                       
     X                                                                       X                                                       
     X                                                                       X                                                       
     X                                                                       X                                                       
     X                                                                       X                                                       
     X                                                                       X                                                       
                                                                             X                                                       
                                                                             X                                                       
                                                                             X                                                       
                                                                             X                                                       
                                                                             X                                                       
                                                                             X                                                       
                                                                             X                                                       
                                                                             X                                                       
                                                                             X                                                       
 
 
                                                                water
                                                            Raman Spectrum
 
     4   4                                                                   1                                                       
     1   0                                                                   8                                                       
     8   7                                                                   2                                                       
     9   0                                                                   7                                                       
 
     X   X                                                                   X                                                       
     X   X                                                                   X                                                       
     X   X                                                                                                                           
     X   X                                                                                                                           
     X   X                                                                                                                           
     X   X                                                                                                                           
     X   X                                                                                                                           
     X   X                                                                                                                           
     X   X                                                                                                                           
     X   X                                                                                                                           
         X                                                                                                                           
         X                                                                                                                           
         X                                                                                                                           
         X                                                                                                                           
         X                                                                                                                           
         X                                                                                                                           
         X                                                                                                                           
         X                                                                                                                           
         X                                                                                                                           
         X                                                                                                                           
 
 ***** Axes restored to original set *****
 -------------------------------------------------------------------
 Center     Atomic                   Forces (Hartrees/Bohr)
 Number     Number              X              Y              Z
 -------------------------------------------------------------------
      1        8           0.000000000    0.000048266   -0.000000000
      2        1          -0.000024931   -0.000024133   -0.000000000
      3        1           0.000024931   -0.000024133    0.000000000
 -------------------------------------------------------------------
 Cartesian Forces:  Max     0.000048266 RMS     0.000022943
 Force constants in Cartesian coordinates: 
                1             2             3             4             5 
      1  0.785101D+00
      2  0.000000D+00  0.534354D+00
      3  0.000000D+00  0.000000D+00  0.445306D-04
      4 -0.392550D+00  0.225909D+00  0.000000D+00  0.425454D+00
      5  0.298587D+00 -0.267177D+00  0.000000D+00 -0.262248D+00  0.247144D+00
      6  0.000000D+00  0.000000D+00 -0.222653D-04  0.000000D+00  0.000000D+00
      7 -0.392550D+00 -0.225909D+00  0.000000D+00 -0.329032D-01 -0.363391D-01
      8 -0.298587D+00 -0.267177D+00  0.000000D+00  0.363391D-01  0.200334D-01
      9  0.000000D+00  0.000000D+00 -0.222653D-04  0.000000D+00  0.000000D+00
                6             7             8             9 
      6  0.238373D-05
      7  0.000000D+00  0.425454D+00
      8  0.000000D+00  0.262248D+00  0.247144D+00
      9  0.198816D-04  0.000000D+00  0.000000D+00  0.238373D-05
 FormGI is forming the generalized inverse of G from B-inverse, IUseBI=4.
 Force constants in internal coordinates: 
                1             2             3 
      1  0.612829D+00
      2 -0.683472D-02  0.612829D+00
      3  0.284659D-01  0.284659D-01  0.191552D+00
 Leave Link  716 at Sun Jan 19 23:06:41 2025, MaxMem=  1258291200 cpu:               0.1 elap:               0.1
 (Enter /apl/gaussian/16c02/g16/l103.exe)

 GradGradGradGradGradGradGradGradGradGradGradGradGradGradGradGradGradGrad
 Berny optimization.
 Red2BG is reusing G-inverse.
 Internal  Forces:  Max     0.000061405 RMS     0.000035709
 Search for a local minimum.
 Step number   1 out of a maximum of    2
 All quantities printed in internal units (Hartrees-Bohrs-Radians)
 Second derivative matrix not updated -- analytic derivatives used.
 The second derivative matrix:
                          R1        R2        A1
           R1           0.61283
           R2          -0.00683   0.61283
           A1           0.02847   0.02847   0.19155
 ITU=  0
     Eigenvalues ---    0.18768   0.60987   0.61966
 Angle between quadratic step and forces=   8.51 degrees.
 Linear search not attempted -- first point.
 Iteration  1 RMS(Cart)=  0.00017694 RMS(Int)=  0.00000002
 Iteration  2 RMS(Cart)=  0.00000002 RMS(Int)=  0.00000000
 ITry= 1 IFail=0 DXMaxC= 1.70D-04 DCOld= 1.00D+10 DXMaxT= 3.00D-01 DXLimC= 3.00D+00 Rises=F
 ClnCor:  largest displacement from symmetrization is 2.22D-16 for atom     3.
 Variable       Old X    -DE/DX   Delta X   Delta X   Delta X     New X
                                 (Linear)    (Quad)   (Total)
    R1        1.79018   0.00001   0.00000  -0.00001  -0.00001   1.79017
    R2        1.79018   0.00001   0.00000  -0.00001  -0.00001   1.79017
    A1        1.84100   0.00006   0.00000   0.00032   0.00032   1.84132
         Item               Value     Threshold  Converged?
 Maximum Force            0.000061     0.000450     YES
 RMS     Force            0.000036     0.000300     YES
 Maximum Displacement     0.000170     0.001800     YES
 RMS     Displacement     0.000177     0.001200     YES
 Predicted change in Energy=-9.867695D-09
 Optimization completed.
    -- Stationary point found.
                           ----------------------------
                           !   Optimized Parameters   !
                           ! (Angstroms and Degrees)  !
 --------------------------                            --------------------------
 ! Name  Definition              Value          Derivative Info.                !
 --------------------------------------------------------------------------------
 ! R1    R(1,2)                  0.9473         -DE/DX =    0.0                 !
 ! R2    R(1,3)                  0.9473         -DE/DX =    0.0                 !
 ! A1    A(2,1,3)              105.4812         -DE/DX =    0.0001              !
 --------------------------------------------------------------------------------
 GradGradGradGradGradGradGradGradGradGradGradGradGradGradGradGradGradGrad

 Leave Link  103 at Sun Jan 19 23:06:42 2025, MaxMem=  1258291200 cpu:               0.0 elap:               0.1
 (Enter /apl/gaussian/16c02/g16/l9999.exe)

 ----------------------------------------------------------------------

 Electric dipole moment (input orientation):
 (Debye = 10**-18 statcoulomb cm , SI units = C m)
                  (au)            (Debye)         (10**-30 SI)
   Tot        0.865240D+00      0.219922D+01      0.733581D+01
   x          0.000000D+00      0.000000D+00      0.000000D+00
   y          0.865240D+00      0.219922D+01      0.733581D+01
   z          0.000000D+00      0.000000D+00      0.000000D+00

 Dipole polarizability, Alpha (input orientation).
 (esu units = cm**3 , SI units = C**2 m**2 J**-1)
 Alpha(0;0):
               (au)            (10**-24 esu)      (10**-40 SI)
   iso        0.475500D+01      0.704618D+00      0.783993D+00
   aniso      0.337823D+01      0.500602D+00      0.556995D+00
   xx         0.667811D+01      0.989593D+00      0.110107D+01
   yx         0.000000D+00      0.000000D+00      0.000000D+00
   yy         0.480851D+01      0.712548D+00      0.792817D+00
   zx         0.000000D+00      0.000000D+00      0.000000D+00
   zy         0.000000D+00      0.000000D+00      0.000000D+00
   zz         0.277837D+01      0.411711D+00      0.458091D+00

 First dipole hyperpolarizability, Beta (input orientation).
 ||, _|_  parallel and perpendicular components, (z) with respect to z axis,
 vector components x,y,z.  Values do not include the 1/n! factor of 1/2.
 (esu units = statvolt**-1 cm**4 , SI units = C**3 m**3 J**-2)
 Beta(0;0,0):
               (au)            (10**-30 esu)      (10**-50 SI)
   || (z)     0.000000D+00      0.000000D+00      0.000000D+00
   _|_(z)     0.000000D+00      0.000000D+00      0.000000D+00
   x          0.000000D+00      0.000000D+00      0.000000D+00
   y          0.848591D+02      0.733116D+00      0.272089D+00
   z          0.000000D+00      0.000000D+00      0.000000D+00
   ||         0.169718D+02      0.146623D+00      0.544178D-01
   xxx        0.000000D+00      0.000000D+00      0.000000D+00
   xxy        0.187694D+02      0.162153D+00      0.601816D-01
   yxy        0.000000D+00      0.000000D+00      0.000000D+00
   yyy        0.924762D+01      0.798922D-01      0.296512D-01
   xxz        0.000000D+00      0.000000D+00      0.000000D+00
   yxz        0.000000D+00      0.000000D+00      0.000000D+00
   yyz        0.000000D+00      0.000000D+00      0.000000D+00
   zxz        0.000000D+00      0.000000D+00      0.000000D+00
   zyz        0.269296D+00      0.232651D-02      0.863461D-03
   zzz        0.000000D+00      0.000000D+00      0.000000D+00

 ----------------------------------------------------------------------

 Dipole orientation:
     8         -0.00000000          0.00000000         -0.05912565
     1         -1.42480936          0.00000000          1.02469260
     1          1.42480936         -0.00000000          1.02469260

 Electric dipole moment (dipole orientation):
 (Debye = 10**-18 statcoulomb cm , SI units = C m)
                  (au)            (Debye)         (10**-30 SI)
   Tot        0.865240D+00      0.219922D+01      0.733581D+01
   x          0.000000D+00      0.000000D+00      0.000000D+00
   y          0.000000D+00      0.000000D+00      0.000000D+00
   z          0.865240D+00      0.219922D+01      0.733581D+01

 Dipole polarizability, Alpha (dipole orientation).
 (esu units = cm**3 , SI units = C**2 m**2 J**-1)
 Alpha(0;0):
               (au)            (10**-24 esu)      (10**-40 SI)
   iso        0.475500D+01      0.704618D+00      0.783993D+00
   aniso      0.337823D+01      0.500602D+00      0.556995D+00
   xx         0.667811D+01      0.989593D+00      0.110107D+01
   yx         0.000000D+00      0.000000D+00      0.000000D+00
   yy         0.277837D+01      0.411711D+00      0.458091D+00
   zx         0.000000D+00      0.000000D+00      0.000000D+00
   zy         0.000000D+00      0.000000D+00      0.000000D+00
   zz         0.480851D+01      0.712548D+00      0.792817D+00

 First dipole hyperpolarizability, Beta (dipole orientation).
 ||, _|_  parallel and perpendicular components, (z) with respect to z axis,
 vector components x,y,z.  Values do not include the 1/n! factor of 1/2.
 (esu units = statvolt**-1 cm**4 , SI units = C**3 m**3 J**-2)
 Beta(0;0,0):
               (au)            (10**-30 esu)      (10**-50 SI)
   || (z)     0.169718D+02      0.146623D+00      0.544178D-01
   _|_(z)     0.565727D+01      0.488744D-01      0.181393D-01
   x          0.000000D+00      0.000000D+00      0.000000D+00
   y          0.000000D+00      0.000000D+00      0.000000D+00
   z          0.848591D+02      0.733116D+00      0.272089D+00
   ||         0.169718D+02      0.146623D+00      0.544178D-01
   xxx        0.000000D+00      0.000000D+00      0.000000D+00
   xxy        0.000000D+00      0.000000D+00      0.000000D+00
   yxy        0.000000D+00      0.000000D+00      0.000000D+00
   yyy        0.000000D+00      0.000000D+00      0.000000D+00
   xxz        0.187694D+02      0.162153D+00      0.601816D-01
   yxz        0.000000D+00      0.000000D+00      0.000000D+00
   yyz        0.269296D+00      0.232651D-02      0.863461D-03
   zxz        0.000000D+00      0.000000D+00      0.000000D+00
   zyz        0.000000D+00      0.000000D+00      0.000000D+00
   zzz        0.924762D+01      0.798922D-01      0.296512D-01

 ----------------------------------------------------------------------
 Unable to Open any file for archive entry.
 1\1\GINC-CCC131\Freq\RHF\6-31G(d)\H2O1\ROOT\19-Jan-2025\0\\#P HF/6-31G
 (d) Freq Geom=AllCheck Guess=Read\\water\\0,1\O,0.,-0.0312879449,0.\H,
 -0.7539766412,0.5422439724,0.\H,0.7539766412,0.5422439724,0.\\Version=
 ES64L-G16RevC.02\State=1-A1\HF=-76.0107465\RMSD=0.000e+00\RMSF=2.294e-
 05\ZeroPoint=0.0229772\Thermal=0.025811\ETot=-75.9849355\HTot=-75.9839
 913\GTot=-76.0053661\Dipole=0.,0.8652395,0.\DipoleDeriv=-0.5362965,0.,
 0.,0.,-0.4666461,0.,0.,0.,-0.7983252,0.2681482,0.0595019,0.,0.0996595,
 0.233323,0.,0.,0.,0.3991626,0.2681482,-0.0595019,0.,-0.0996595,0.23332
 3,0.,0.,0.,0.3991626\Polar=6.678107,0.,4.8085124,0.,0.,2.7783662\Polar
 Deriv=0.,-4.7132344,0.,0.,0.,0.,-5.3948533,0.,-5.4266272,0.,0.,0.30153
 62,0.,0.,0.,0.,-1.8731429,0.,-4.8105032,2.3566172,-1.0001335,0.,0.,0.1
 275013,2.6974266,-2.4487081,2.7133136,0.,0.,-0.1507681,0.,0.,0.,-1.368
 5133,0.9365714,0.,4.8105032,2.3566172,1.0001335,0.,0.,-0.1275013,2.697
 4266,2.4487081,2.7133136,0.,0.,-0.1507681,0.,0.,0.,1.3685133,0.9365714
 ,0.\HyperPolar=0.,18.7694472,0.,9.2476203,0.,0.,0.,0.,0.2692962,0.\Qua
 drupole=1.2375111,-0.1707251,-1.066786,0.,0.,0.\PG=C02V [C2(O1),SGV(H2
 )]\NImag=0\\0.78510083,0.,0.53435407,0.,0.,0.00004453,-0.39255041,0.22
 590854,0.,0.42545360,0.29858673,-0.26717704,0.,-0.26224764,0.24714365,
 0.,0.,-0.00002227,0.,0.,0.00000238,-0.39255041,-0.22590854,0.,-0.03290
 318,-0.03633909,0.,0.42545360,-0.29858673,-0.26717704,0.,0.03633909,0.
 02003339,0.,0.26224764,0.24714365,0.,0.,-0.00002227,0.,0.,0.00001988,0
 .,0.,0.00000238\\0.,-0.00004827,0.,0.00002493,0.00002413,0.,-0.0000249
 3,0.00002413,0.\\\@
 The archive entry for this job was punched.


 ... THE UNIVERSE IS NOT ONLY QUEERER THAN WE SUPPOSE,
 BUT QUEERER THAN WE CAN SUPPOSE ... 

                                   -- J. B. S. HALDANE
 Job cpu time:       0 days  0 hours  0 minutes  7.4 seconds.
 Elapsed time:       0 days  0 hours  0 minutes  8.9 seconds.
 File lengths (MBytes):  RWF=      6 Int=      0 D2E=      0 Chk=      1 Scr=      1
 Normal termination of Gaussian 16 at Sun Jan 19 23:06:42 2025.
