 Entering Gaussian System, Link 0=/apl/gaussian/16c02/g16/._.g16
 Initial command:
 /apl/gaussian/16c02/g16/l1.exe "/lwork/users/sw6/8030465.ccpbs1/gaussian/Gau-1279090.inp" -scrdir="/lwork/users/sw6/8030465.ccpbs1/gaussian/"
 Default CPUs for threads: 52,53,54,55,56,57,58,59,60,61
 Default is to use a total of  10 processors:
                               10 via shared-memory
                                1 via Linda
 Entering Link 1 = /apl/gaussian/16c02/g16/l1.exe PID=   1279091.
  
 Copyright (c) 1988-2021, Gaussian, Inc.  All Rights Reserved.
  
 This is part of the Gaussian(R) 16 program.  It is based on
 the Gaussian(R) 09 system (copyright 2009, Gaussian, Inc.),
 the Gaussian(R) 03 system (copyright 2003, Gaussian, Inc.),
 the Gaussian(R) 98 system (copyright 1998, Gaussian, Inc.),
 the Gaussian(R) 94 system (copyright 1995, Gaussian, Inc.),
 the Gaussian 92(TM) system (copyright 1992, Gaussian, Inc.),
 the Gaussian 90(TM) system (copyright 1990, Gaussian, Inc.),
 the Gaussian 88(TM) system (copyright 1988, Gaussian, Inc.),
 the Gaussian 86(TM) system (copyright 1986, Carnegie Mellon
 University), and the Gaussian 82(TM) system (copyright 1983,
 Carnegie Mellon University). Gaussian is a federally registered
 trademark of Gaussian, Inc.
  
 This software contains proprietary and confidential information,
 including trade secrets, belonging to Gaussian, Inc.
  
 This software is provided under written license and may be
 used, copied, transmitted, or stored only in accord with that
 written license.
  
 The following legend is applicable only to US Government
 contracts under FAR:
  
                    RESTRICTED RIGHTS LEGEND
  
 Use, reproduction and disclosure by the US Government is
 subject to restrictions as set forth in subparagraphs (a)
 and (c) of the Commercial Computer Software - Restricted
 Rights clause in FAR 52.227-19.
  
 Gaussian, Inc.
 340 Quinnipiac St., Bldg. 40, Wallingford CT 06492
  
  
 ---------------------------------------------------------------
 Warning -- This program may not be used in any manner that
 competes with the business of Gaussian, Inc. or will provide
 assistance to any competitor of Gaussian, Inc.  The licensee
 of this program is prohibited from giving any competitor of
 Gaussian, Inc. access to this program.  By using this program,
 the user acknowledges that Gaussian, Inc. is engaged in the
 business of creating and licensing software in the field of
 computational chemistry and represents and warrants to the
 licensee that it is not a competitor of Gaussian, Inc. and that
 it will not use this program in any manner prohibited above.
 ---------------------------------------------------------------
  

 Cite this work as:
 Gaussian 16, Revision C.02,
 M. J. Frisch, G. W. Trucks, H. B. Schlegel, G. E. Scuseria, 
 M. A. Robb, J. R. Cheeseman, G. Scalmani, V. Barone, 
 G. A. Petersson, H. Nakatsuji, X. Li, M. Caricato, A. V. Marenich, 
 J. Bloino, B. G. Janesko, R. Gomperts, B. Mennucci, H. P. Hratchian, 
 J. V. Ortiz, A. F. Izmaylov, J. L. Sonnenberg, D. Williams-Young, 
 F. Ding, F. Lipparini, F. Egidi, J. Goings, B. Peng, A. Petrone, 
 T. Henderson, D. Ranasinghe, V. G. Zakrzewski, J. Gao, N. Rega, 
 G. Zheng, W. Liang, M. Hada, M. Ehara, K. Toyota, R. Fukuda, 
 J. Hasegawa, M. Ishida, T. Nakajima, Y. Honda, O. Kitao, H. Nakai, 
 T. Vreven, K. Throssell, J. A. Montgomery, Jr., J. E. Peralta, 
 F. Ogliaro, M. J. Bearpark, J. J. Heyd, E. N. Brothers, K. N. Kudin, 
 V. N. Staroverov, T. A. Keith, R. Kobayashi, J. Normand, 
 K. Raghavachari, A. P. Rendell, J. C. Burant, S. S. Iyengar, 
 J. Tomasi, M. Cossi, J. M. Millam, M. Klene, C. Adamo, R. Cammi, 
 J. W. Ochterski, R. L. Martin, K. Morokuma, O. Farkas, 
 J. B. Foresman, and D. J. Fox, Gaussian, Inc., Wallingford CT, 2019.
 
 ******************************************
 Gaussian 16:  ES64L-G16RevC.02  7-Dec-2021
                16-Jan-2025 
 ******************************************
 %Chk=opt.chk
 %mem=12GB
 SetSPE:  set environment variable "OMP_PROC_BIND" = "true"
 SetSPE:  set environment variable "OMP_PLACES" = "{52},{53},{54},{55},{56},{57},{58},{59},{60},{61}"
 ---------------------
 #P B3LYP/6-31G(d) Opt
 ---------------------
 1/18=20,19=15,26=3,38=1/1,3;
 2/9=110,12=2,17=6,18=5,40=1/2;
 3/5=1,6=6,7=1,11=2,25=1,30=1,71=1,74=-5/1,2,3;
 4//1;
 5/5=2,38=5/2;
 6/7=2,8=2,9=2,10=2,28=1/1;
 7//1,2,3,16;
 1/18=20,19=15,26=3/3(2);
 2/9=110/2;
 99//99;
 2/9=110/2;
 3/5=1,6=6,7=1,11=2,25=1,30=1,71=1,74=-5/1,2,3;
 4/5=5,16=3,69=1/1;
 5/5=2,38=5/2;
 7//1,2,3,16;
 1/18=20,19=15,26=3/3(-5);
 2/9=110/2;
 6/7=2,8=2,9=2,10=2,19=2,28=1/1;
 99/9=1/99;
 Leave Link    1 at Thu Jan 16 16:52:03 2025, MaxMem=  1610612736 cpu:               0.0 elap:               0.0
 (Enter /apl/gaussian/16c02/g16/l101.exe)
 --------
 caffeine
 --------
 Symbolic Z-matrix:
 Charge =  0 Multiplicity = 1
 C                     3.2697    0.60391  -0.22651 
 N                     2.12476  -0.2693   -0.27782 
 C                     2.14317  -1.61279  -0.54497 
 N                     0.93087  -2.13031  -0.51895 
 C                     0.11891  -1.07679  -0.22513 
 C                     0.8211    0.07979  -0.07107 
 C                     0.21175   1.32557   0.23928 
 O                     0.85398   2.36256   0.37608 
 N                    -1.17715   1.23143   0.36755 
 C                    -1.93946   0.05398   0.21572 
 O                    -3.16686   0.07167   0.349 
 N                    -1.24747  -1.11868  -0.08893 
 C                    -1.95732  -2.37289  -0.26145 
 C                    -1.91745   2.43715   0.68384 
 H                     4.17588   0.0296   -0.4357 
 H                     3.14621   1.38459  -0.98119 
 H                     3.33185   1.03801   0.77447 
 H                     3.05515  -2.15976  -0.74937 
 H                    -1.5893   -3.09582   0.47349 
 H                    -3.03521  -2.25386  -0.124 
 H                    -1.77385  -2.75126  -1.27209 
 H                    -2.46222   2.28438   1.62133 
 H                    -2.64551   2.62648  -0.11183 
 H                    -1.27154   3.31235   0.78828 
 
 ITRead=  0  0  0  0  0  0  0  0  0  0  0  0  0  0  0  0  0  0  0  0
 ITRead=  0  0  0  0
 MicOpt= -1 -1 -1 -1 -1 -1 -1 -1 -1 -1 -1 -1 -1 -1 -1 -1 -1 -1 -1 -1
 MicOpt= -1 -1 -1 -1
 NAtoms=     24 NQM=       24 NQMF=       0 NMMI=      0 NMMIF=      0
                NMic=       0 NMicF=      0.
                    Isotopes and Nuclear Properties:
 (Nuclear quadrupole moments (NQMom) in fm**2, nuclear magnetic moments (NMagM)
  in nuclear magnetons)

  Atom         1           2           3           4           5           6           7           8           9          10
 IAtWgt=          12          14          12          14          12          12          12          16          14          12
 AtmWgt=  12.0000000  14.0030740  12.0000000  14.0030740  12.0000000  12.0000000  12.0000000  15.9949146  14.0030740  12.0000000
 NucSpn=           0           2           0           2           0           0           0           0           2           0
 AtZEff=  -0.0000000  -0.0000000  -0.0000000  -0.0000000  -0.0000000  -0.0000000  -0.0000000  -0.0000000  -0.0000000  -0.0000000
 NQMom=    0.0000000   2.0440000   0.0000000   2.0440000   0.0000000   0.0000000   0.0000000   0.0000000   2.0440000   0.0000000
 NMagM=    0.0000000   0.4037610   0.0000000   0.4037610   0.0000000   0.0000000   0.0000000   0.0000000   0.4037610   0.0000000
 AtZNuc=   6.0000000   7.0000000   6.0000000   7.0000000   6.0000000   6.0000000   6.0000000   8.0000000   7.0000000   6.0000000

  Atom        11          12          13          14          15          16          17          18          19          20
 IAtWgt=          16          14          12          12           1           1           1           1           1           1
 AtmWgt=  15.9949146  14.0030740  12.0000000  12.0000000   1.0078250   1.0078250   1.0078250   1.0078250   1.0078250   1.0078250
 NucSpn=           0           2           0           0           1           1           1           1           1           1
 AtZEff=  -0.0000000  -0.0000000  -0.0000000  -0.0000000  -0.0000000  -0.0000000  -0.0000000  -0.0000000  -0.0000000  -0.0000000
 NQMom=    0.0000000   2.0440000   0.0000000   0.0000000   0.0000000   0.0000000   0.0000000   0.0000000   0.0000000   0.0000000
 NMagM=    0.0000000   0.4037610   0.0000000   0.0000000   2.7928460   2.7928460   2.7928460   2.7928460   2.7928460   2.7928460
 AtZNuc=   8.0000000   7.0000000   6.0000000   6.0000000   1.0000000   1.0000000   1.0000000   1.0000000   1.0000000   1.0000000

  Atom        21          22          23          24
 IAtWgt=           1           1           1           1
 AtmWgt=   1.0078250   1.0078250   1.0078250   1.0078250
 NucSpn=           1           1           1           1
 AtZEff=  -0.0000000  -0.0000000  -0.0000000  -0.0000000
 NQMom=    0.0000000   0.0000000   0.0000000   0.0000000
 NMagM=    2.7928460   2.7928460   2.7928460   2.7928460
 AtZNuc=   1.0000000   1.0000000   1.0000000   1.0000000
 Leave Link  101 at Thu Jan 16 16:52:04 2025, MaxMem=  1610612736 cpu:               0.1 elap:               0.1
 (Enter /apl/gaussian/16c02/g16/l103.exe)

 GradGradGradGradGradGradGradGradGradGradGradGradGradGradGradGradGradGrad
 Berny optimization.
 Initialization pass.
                           ----------------------------
                           !    Initial Parameters    !
                           ! (Angstroms and Degrees)  !
 --------------------------                            --------------------------
 ! Name  Definition              Value          Derivative Info.                !
 --------------------------------------------------------------------------------
 ! R1    R(1,2)                  1.4408         estimate D2E/DX2                !
 ! R2    R(1,15)                 1.0931         estimate D2E/DX2                !
 ! R3    R(1,16)                 1.0928         estimate D2E/DX2                !
 ! R4    R(1,17)                 1.0928         estimate D2E/DX2                !
 ! R5    R(2,3)                  1.3699         estimate D2E/DX2                !
 ! R6    R(2,6)                  1.3653         estimate D2E/DX2                !
 ! R7    R(3,4)                  1.3184         estimate D2E/DX2                !
 ! R8    R(3,18)                 1.0829         estimate D2E/DX2                !
 ! R9    R(4,5)                  1.3622         estimate D2E/DX2                !
 ! R10   R(5,6)                  1.3618         estimate D2E/DX2                !
 ! R11   R(5,12)                 1.3738         estimate D2E/DX2                !
 ! R12   R(6,7)                  1.4211         estimate D2E/DX2                !
 ! R13   R(7,8)                  1.2274         estimate D2E/DX2                !
 ! R14   R(7,9)                  1.398          estimate D2E/DX2                !
 ! R15   R(9,10)                 1.4109         estimate D2E/DX2                !
 ! R16   R(9,14)                 1.4498         estimate D2E/DX2                !
 ! R17   R(10,11)                1.2347         estimate D2E/DX2                !
 ! R18   R(10,12)                1.3953         estimate D2E/DX2                !
 ! R19   R(12,13)                1.4514         estimate D2E/DX2                !
 ! R20   R(13,19)                1.0946         estimate D2E/DX2                !
 ! R21   R(13,20)                1.0931         estimate D2E/DX2                !
 ! R22   R(13,21)                1.0946         estimate D2E/DX2                !
 ! R23   R(14,22)                1.095          estimate D2E/DX2                !
 ! R24   R(14,23)                1.095          estimate D2E/DX2                !
 ! R25   R(14,24)                1.0927         estimate D2E/DX2                !
 ! A1    A(2,1,15)             109.4836         estimate D2E/DX2                !
 ! A2    A(2,1,16)             108.575          estimate D2E/DX2                !
 ! A3    A(2,1,17)             108.575          estimate D2E/DX2                !
 ! A4    A(15,1,16)            109.6859         estimate D2E/DX2                !
 ! A5    A(15,1,17)            109.6859         estimate D2E/DX2                !
 ! A6    A(16,1,17)            110.8062         estimate D2E/DX2                !
 ! A7    A(1,2,3)              126.2011         estimate D2E/DX2                !
 ! A8    A(1,2,6)              126.7548         estimate D2E/DX2                !
 ! A9    A(3,2,6)              107.0441         estimate D2E/DX2                !
 ! A10   A(2,3,4)              111.6393         estimate D2E/DX2                !
 ! A11   A(2,3,18)             122.9206         estimate D2E/DX2                !
 ! A12   A(4,3,18)             125.4401         estimate D2E/DX2                !
 ! A13   A(3,4,5)              104.4045         estimate D2E/DX2                !
 ! A14   A(4,5,6)              111.9569         estimate D2E/DX2                !
 ! A15   A(4,5,12)             126.2036         estimate D2E/DX2                !
 ! A16   A(6,5,12)             121.8395         estimate D2E/DX2                !
 ! A17   A(2,6,5)              104.9551         estimate D2E/DX2                !
 ! A18   A(2,6,7)              131.8063         estimate D2E/DX2                !
 ! A19   A(5,6,7)              123.2385         estimate D2E/DX2                !
 ! A20   A(6,7,8)              122.725          estimate D2E/DX2                !
 ! A21   A(6,7,9)              112.7679         estimate D2E/DX2                !
 ! A22   A(8,7,9)              124.5071         estimate D2E/DX2                !
 ! A23   A(7,9,10)             125.6708         estimate D2E/DX2                !
 ! A24   A(7,9,14)             118.1204         estimate D2E/DX2                !
 ! A25   A(10,9,14)            116.2087         estimate D2E/DX2                !
 ! A26   A(9,10,11)            120.8991         estimate D2E/DX2                !
 ! A27   A(9,10,12)            117.1891         estimate D2E/DX2                !
 ! A28   A(11,10,12)           121.9118         estimate D2E/DX2                !
 ! A29   A(5,12,10)            119.2941         estimate D2E/DX2                !
 ! A30   A(5,12,13)            120.0662         estimate D2E/DX2                !
 ! A31   A(10,12,13)           120.6396         estimate D2E/DX2                !
 ! A32   A(12,13,19)           109.0536         estimate D2E/DX2                !
 ! A33   A(12,13,20)           111.9142         estimate D2E/DX2                !
 ! A34   A(12,13,21)           109.0537         estimate D2E/DX2                !
 ! A35   A(19,13,20)           108.6032         estimate D2E/DX2                !
 ! A36   A(19,13,21)           109.5879         estimate D2E/DX2                !
 ! A37   A(20,13,21)           108.6032         estimate D2E/DX2                !
 ! A38   A(9,14,22)            108.9529         estimate D2E/DX2                !
 ! A39   A(9,14,23)            108.9531         estimate D2E/DX2                !
 ! A40   A(9,14,24)            112.6509         estimate D2E/DX2                !
 ! A41   A(22,14,23)           108.3882         estimate D2E/DX2                !
 ! A42   A(22,14,24)           108.9043         estimate D2E/DX2                !
 ! A43   A(23,14,24)           108.9043         estimate D2E/DX2                !
 ! D1    D(15,1,2,3)             0.0005         estimate D2E/DX2                !
 ! D2    D(15,1,2,6)          -179.9993         estimate D2E/DX2                !
 ! D3    D(16,1,2,3)           119.7268         estimate D2E/DX2                !
 ! D4    D(16,1,2,6)           -60.2731         estimate D2E/DX2                !
 ! D5    D(17,1,2,3)          -119.7257         estimate D2E/DX2                !
 ! D6    D(17,1,2,6)            60.2744         estimate D2E/DX2                !
 ! D7    D(1,2,3,4)           -179.9999         estimate D2E/DX2                !
 ! D8    D(1,2,3,18)             0.0002         estimate D2E/DX2                !
 ! D9    D(6,2,3,4)              0.0            estimate D2E/DX2                !
 ! D10   D(6,2,3,18)          -180.0            estimate D2E/DX2                !
 ! D11   D(1,2,6,5)            179.9998         estimate D2E/DX2                !
 ! D12   D(1,2,6,7)             -0.0001         estimate D2E/DX2                !
 ! D13   D(3,2,6,5)              0.0            estimate D2E/DX2                !
 ! D14   D(3,2,6,7)            180.0            estimate D2E/DX2                !
 ! D15   D(2,3,4,5)              0.0            estimate D2E/DX2                !
 ! D16   D(18,3,4,5)           180.0            estimate D2E/DX2                !
 ! D17   D(3,4,5,6)              0.0            estimate D2E/DX2                !
 ! D18   D(3,4,5,12)          -180.0            estimate D2E/DX2                !
 ! D19   D(4,5,6,2)              0.0            estimate D2E/DX2                !
 ! D20   D(4,5,6,7)           -180.0            estimate D2E/DX2                !
 ! D21   D(12,5,6,2)           180.0            estimate D2E/DX2                !
 ! D22   D(12,5,6,7)            -0.0001         estimate D2E/DX2                !
 ! D23   D(4,5,12,10)          179.9998         estimate D2E/DX2                !
 ! D24   D(4,5,12,13)            0.0            estimate D2E/DX2                !
 ! D25   D(6,5,12,10)           -0.0001         estimate D2E/DX2                !
 ! D26   D(6,5,12,13)         -179.9999         estimate D2E/DX2                !
 ! D27   D(2,6,7,8)             -0.0001         estimate D2E/DX2                !
 ! D28   D(2,6,7,9)            180.0            estimate D2E/DX2                !
 ! D29   D(5,6,7,8)            179.9999         estimate D2E/DX2                !
 ! D30   D(5,6,7,9)              0.0            estimate D2E/DX2                !
 ! D31   D(6,7,9,10)             0.0002         estimate D2E/DX2                !
 ! D32   D(6,7,9,14)           179.9999         estimate D2E/DX2                !
 ! D33   D(8,7,9,10)          -179.9998         estimate D2E/DX2                !
 ! D34   D(8,7,9,14)             0.0            estimate D2E/DX2                !
 ! D35   D(7,9,10,11)          179.9996         estimate D2E/DX2                !
 ! D36   D(7,9,10,12)           -0.0003         estimate D2E/DX2                !
 ! D37   D(14,9,10,11)          -0.0001         estimate D2E/DX2                !
 ! D38   D(14,9,10,12)         180.0            estimate D2E/DX2                !
 ! D39   D(7,9,14,22)         -120.9622         estimate D2E/DX2                !
 ! D40   D(7,9,14,23)          120.9655         estimate D2E/DX2                !
 ! D41   D(7,9,14,24)            0.0016         estimate D2E/DX2                !
 ! D42   D(10,9,14,22)          59.0375         estimate D2E/DX2                !
 ! D43   D(10,9,14,23)         -59.0348         estimate D2E/DX2                !
 ! D44   D(10,9,14,24)        -179.9986         estimate D2E/DX2                !
 ! D45   D(9,10,12,5)            0.0002         estimate D2E/DX2                !
 ! D46   D(9,10,12,13)        -179.9999         estimate D2E/DX2                !
 ! D47   D(11,10,12,5)        -179.9997         estimate D2E/DX2                !
 ! D48   D(11,10,12,13)          0.0001         estimate D2E/DX2                !
 ! D49   D(5,12,13,19)          59.82           estimate D2E/DX2                !
 ! D50   D(5,12,13,20)        -179.9994         estimate D2E/DX2                !
 ! D51   D(5,12,13,21)         -59.8186         estimate D2E/DX2                !
 ! D52   D(10,12,13,19)       -120.1799         estimate D2E/DX2                !
 ! D53   D(10,12,13,20)          0.0008         estimate D2E/DX2                !
 ! D54   D(10,12,13,21)        120.1815         estimate D2E/DX2                !
 --------------------------------------------------------------------------------
 Trust Radius=3.00D-01 FncErr=1.00D-07 GrdErr=1.00D-06 EigMax=2.50D+02 EigMin=1.00D-04
 Number of steps in this run=    132 maximum allowed number of steps=    144.
 GradGradGradGradGradGradGradGradGradGradGradGradGradGradGradGradGradGrad

 Leave Link  103 at Thu Jan 16 16:52:04 2025, MaxMem=  1610612736 cpu:               0.0 elap:               0.1
 (Enter /apl/gaussian/16c02/g16/l202.exe)
                          Input orientation:                          
 ---------------------------------------------------------------------
 Center     Atomic      Atomic             Coordinates (Angstroms)
 Number     Number       Type             X           Y           Z
 ---------------------------------------------------------------------
      1          6           0        3.269703    0.603913   -0.226509
      2          7           0        2.124762   -0.269300   -0.277820
      3          6           0        2.143167   -1.612792   -0.544972
      4          7           0        0.930866   -2.130315   -0.518950
      5          6           0        0.118907   -1.076786   -0.225132
      6          6           0        0.821099    0.079791   -0.071068
      7          6           0        0.211751    1.325568    0.239278
      8          8           0        0.853979    2.362560    0.376077
      9          7           0       -1.177145    1.231427    0.367547
     10          6           0       -1.939456    0.053977    0.215723
     11          8           0       -3.166857    0.071668    0.348999
     12          7           0       -1.247465   -1.118683   -0.088930
     13          6           0       -1.957324   -2.372888   -0.261453
     14          6           0       -1.917449    2.437152    0.683835
     15          1           0        4.175883    0.029601   -0.435704
     16          1           0        3.146206    1.384588   -0.981191
     17          1           0        3.331852    1.038007    0.774466
     18          1           0        3.055148   -2.159758   -0.749370
     19          1           0       -1.589301   -3.095821    0.473490
     20          1           0       -3.035207   -2.253860   -0.123999
     21          1           0       -1.773851   -2.751256   -1.272092
     22          1           0       -2.462216    2.284375    1.621329
     23          1           0       -2.645514    2.626482   -0.111830
     24          1           0       -1.271537    3.312353    0.788278
 ---------------------------------------------------------------------
                    Distance matrix (angstroms):
                    1          2          3          4          5
     1  C    0.000000
     2  N    1.440841   0.000000
     3  C    2.506847   1.369920   0.000000
     4  N    3.609942   2.224165   1.318401   0.000000
     5  C    3.571032   2.162929   2.118308   1.362178   0.000000
     6  C    2.508890   1.365338   2.199383   2.257701   1.361793
     7  C    3.176289   2.543738   3.602690   3.610424   2.448592
     8  O    3.048224   2.994855   4.279458   4.581802   3.568036
     9  N    4.530026   3.683920   4.466178   4.065821   2.712723
    10  C    5.256742   4.106819   4.474884   3.680981   2.389526
    11  O    6.484119   5.339512   5.642069   4.732166   3.527721
    12  N    4.836432   3.482678   3.456661   2.439968   1.373783
    13  C    6.015345   4.592252   4.179971   2.909775   2.447843
    14  C    5.576382   4.958743   5.865204   5.515555   4.161818
    15  H    1.093050   2.078790   2.615593   3.899013   4.210402
    16  H    1.092817   2.067226   3.190715   4.180424   3.974233
    17  H    1.092818   2.067226   3.190709   4.180421   3.974237
    18  H    2.820868   2.159122   1.082894   2.136945   3.173195
    19  H    6.147190   4.727362   4.143423   2.875479   2.735425
    20  H    6.923096   5.530589   5.234859   3.987604   3.368110
    21  H    6.147181   4.727353   4.143408   2.875463   2.735417
    22  H    6.252468   5.582866   6.410173   5.965173   4.622663
    23  H    6.252498   5.582888   6.410189   5.965179   4.622667
    24  H    5.384078   5.049718   6.139610   6.015152   4.714327
                    6          7          8          9         10
     6  C    0.000000
     7  C    1.421119   0.000000
     8  O    2.326382   1.227405   0.000000
     9  N    2.347686   1.397980   2.324865   0.000000
    10  C    2.775532   2.499038   3.627471   1.410871   0.000000
    11  O    4.010027   3.605454   4.627747   2.303115   1.234742
    12  N    2.390735   2.865553   4.092841   2.395064   1.395276
    13  C    3.710999   4.316734   5.543856   3.741044   2.473396
    14  C    3.691433   2.442692   2.789461   1.449780   2.428814
    15  H    3.374915   4.224864   4.139654   5.544773   6.149986
    16  H    2.817258   3.178687   2.837765   4.531436   5.391390
    17  H    2.817266   3.178702   2.837782   4.531451   5.391400
    18  H    3.235220   4.605413   5.153944   5.537142   5.547801
    19  H    4.023815   4.779887   5.981056   4.348123   3.179667
    20  H    4.507752   4.846340   6.056994   3.980105   2.577245
    21  H    4.023811   4.779890   5.981059   4.348130   3.179678
    22  H    4.301692   3.159031   3.543150   2.081364   2.687691
    23  H    4.301709   3.159053   3.543185   2.081367   2.687674
    24  H    3.945511   2.539460   2.364283   2.125130   3.375048
                   11         12         13         14         15
    11  O    0.000000
    12  N    2.300605   0.000000
    13  C    2.794902   1.451446   0.000000
    14  C    2.696043   3.700001   4.902208   0.000000
    15  H    7.384671   5.554414   6.589275   6.646681   0.000000
    16  H    6.583914   5.134865   6.378297   5.433305   1.787115
    17  H    6.583924   5.134872   6.378300   5.433321   1.787116
    18  H    6.700673   4.475768   5.040671   6.921877   2.479461
    19  H    3.540786   2.083805   1.094630   5.546685   6.620592
    20  H    2.376792   2.117989   1.093112   4.889537   7.570414
    21  H    3.540805   2.083806   1.094630   5.546697   6.620577
    22  H    2.647908   3.997676   5.048751   1.094992   7.306145
    23  H    2.647874   3.997665   5.048732   1.094992   7.306172
    24  H    3.779847   4.517096   5.821873   1.092743   6.476803
                   16         17         18         19         20
    16  H    0.000000
    17  H    1.799143   0.000000
    18  H    3.553086   3.553075   0.000000
    19  H    6.679460   6.434040   4.893108   0.000000
    20  H    7.223777   7.223785   6.123101   1.776664   0.000000
    21  H    6.434034   6.679455   4.893091   1.788810   1.776665
    22  H    6.247970   5.986805   7.470732   5.570101   4.895923
    23  H    5.986828   6.248014   7.470749   5.848328   4.895891
    24  H    5.134564   5.134592   7.143428   6.423765   5.909781
                   21         22         23         24
    21  H    0.000000
    22  H    5.848360   0.000000
    23  H    5.570105   1.776084   0.000000
    24  H    6.423768   1.780008   1.780007   0.000000
 Stoichiometry    C8H10N4O2
 Framework group  C1[X(C8H10N4O2)]
 Deg. of freedom    66
 Full point group                 C1      NOp   1
 Largest Abelian subgroup         C1      NOp   1
 Largest concise Abelian subgroup C1      NOp   1
                         Standard orientation:                         
 ---------------------------------------------------------------------
 Center     Atomic      Atomic             Coordinates (Angstroms)
 Number     Number       Type             X           Y           Z
 ---------------------------------------------------------------------
      1          6           0       -3.254063   -1.038535   -0.000000
      2          7           0       -2.245042   -0.009993    0.000001
      3          6           0       -2.467554    1.341735    0.000001
      4          7           0       -1.337311    2.020508    0.000000
      5          6           0       -0.367544    1.063909   -0.000001
      6          6           0       -0.892003   -0.192842   -0.000000
      7          6           0       -0.095062   -1.369475   -0.000001
      8          8           0       -0.577898   -2.497922    0.000002
      9          7           0        1.275616   -1.094538   -0.000003
     10          6           0        1.856853    0.191044   -0.000000
     11          8           0        3.083486    0.332328    0.000004
     12          7           0        0.988612    1.283268   -0.000002
     13          6           0        1.505881    2.639413   -0.000001
     14          6           0        2.197059   -2.213825   -0.000001
     15          1           0       -4.244966   -0.577155   -0.000011
     16          1           0       -3.131170   -1.646752   -0.899567
     17          1           0       -3.131183   -1.646741    0.899576
     18          1           0       -3.460083    1.774799    0.000003
     19          1           0        1.147244    3.158663    0.894411
     20          1           0        2.598814    2.659178   -0.000013
     21          1           0        1.147223    3.158674   -0.894399
     22          1           0        2.834441   -2.149759    0.888056
     23          1           0        2.834481   -2.149734   -0.888028
     24          1           0        1.685959   -3.179675   -0.000027
 ---------------------------------------------------------------------
 Rotational constants (GHZ):           1.0684402           0.7109957           0.4304231
 Leave Link  202 at Thu Jan 16 16:52:05 2025, MaxMem=  1610612736 cpu:               0.1 elap:               0.0
 (Enter /apl/gaussian/16c02/g16/l301.exe)
 Standard basis: 6-31G(d) (6D, 7F)
 Ernie: Thresh=  0.10000D-02 Tol=  0.10000D-05 Strict=F.
 There are   230 symmetry adapted cartesian basis functions of A   symmetry.
 There are   230 symmetry adapted basis functions of A   symmetry.
   230 basis functions,   432 primitive gaussians,   230 cartesian basis functions
    51 alpha electrons       51 beta electrons
       nuclear repulsion energy       931.2914134235 Hartrees.
 IExCor=  402 DFT=T Ex+Corr=B3LYP ExCW=0 ScaHFX=  0.200000
 ScaDFX=  0.800000  0.720000  1.000000  0.810000 ScalE2=  1.000000  1.000000
 IRadAn=      5 IRanWt=     -1 IRanGd=            0 ICorTp=0 IEmpDi=  4
 NAtoms=   24 NActive=   24 NUniq=   24 SFac= 1.00D+00 NAtFMM=   60 NAOKFM=F Big=F
 Integral buffers will be    131072 words long.
 Raffenetti 2 integral format.
 Two-electron integral symmetry is turned on.
 Leave Link  301 at Thu Jan 16 16:52:06 2025, MaxMem=  1610612736 cpu:               0.1 elap:               0.4
 (Enter /apl/gaussian/16c02/g16/l302.exe)
 NPDir=0 NMtPBC=     1 NCelOv=     1 NCel=       1 NClECP=     1 NCelD=      1
         NCelK=      1 NCelE2=     1 NClLst=     1 CellRange=     0.0.
 One-electron integrals computed using PRISM.
 One-electron integral symmetry used in STVInt
 NBasis=   230 RedAO= T EigKep=  6.85D-04  NBF=   230
 NBsUse=   230 1.00D-06 EigRej= -1.00D+00 NBFU=   230
 Precomputing XC quadrature grid using
 IXCGrd= 4 IRadAn=           5 IRanWt=          -1 IRanGd=           0 AccXCQ= 0.00D+00.
 Generated NRdTot=       0 NPtTot=           0 NUsed=           0 NTot=          32
 NSgBfM=   229   229   229   229   229 MxSgAt=    24 MxSgA2=    24.
 Leave Link  302 at Thu Jan 16 16:52:08 2025, MaxMem=  1610612736 cpu:               1.2 elap:               0.7
 (Enter /apl/gaussian/16c02/g16/l303.exe)
 DipDrv:  MaxL=1.
 Leave Link  303 at Thu Jan 16 16:52:08 2025, MaxMem=  1610612736 cpu:               0.1 elap:               0.1
 (Enter /apl/gaussian/16c02/g16/l401.exe)
 ExpMin= 1.61D-01 ExpMax= 5.48D+03 ExpMxC= 8.25D+02 IAcc=3 IRadAn=         5 AccDes= 0.00D+00
 Harris functional with IExCor=  402 and IRadAn=       5 diagonalized for initial guess.
 HarFok:  IExCor=  402 AccDes= 0.00D+00 IRadAn=         5 IDoV= 1 UseB2=F ITyADJ=14
 ICtDFT=  3500011 ScaDFX=  1.000000  1.000000  1.000000  1.000000
 FoFCou: FMM=F IPFlag=           0 FMFlag=      100000 FMFlg1=           0
         NFxFlg=           0 DoJE=T BraDBF=F KetDBF=T FulRan=T
         wScrn=  0.000000 ICntrl=       500 IOpCl=  0 I1Cent=   200000004 NGrid=           0
         NMat0=    1 NMatS0=      1 NMatT0=    0 NMatD0=    1 NMtDS0=    0 NMtDT0=    0
 Petite list used in FoFCou.
 Harris En= -680.327300370043    
 JPrj=0 DoOrth=F DoCkMO=F.
 Leave Link  401 at Thu Jan 16 16:52:09 2025, MaxMem=  1610612736 cpu:               5.1 elap:               0.7
 (Enter /apl/gaussian/16c02/g16/l502.exe)
 Integral symmetry usage will be decided dynamically.
 Closed shell SCF:
 Using DIIS extrapolation, IDIIS=  1040.
 NGot=  1610612736 LenX=  1610501488 LenY=  1610448147
 Requested convergence on RMS density matrix=1.00D-08 within 128 cycles.
 Requested convergence on MAX density matrix=1.00D-06.
 Requested convergence on             energy=1.00D-06.
 No special actions if energy rises.
 Fock matrices will be formed incrementally for  20 cycles.
 Integral accuracy reduced to 1.0D-05 until final iterations.

 Cycle   1  Pass 0  IDiag  1:
 FoFJK:  IHMeth= 1 ICntrl=       0 DoSepK=F KAlg= 0 I1Cent=           0 FoldK=F
 IRaf= 890000000 NMat=       1 IRICut=       1 DoRegI=T DoRafI=F ISym2E= 0 IDoP0=0 IntGTp=1.
 FoFCou: FMM=F IPFlag=           0 FMFlag=      100000 FMFlg1=           0
         NFxFlg=           0 DoJE=F BraDBF=F KetDBF=F FulRan=T
         wScrn=  0.000000 ICntrl=         0 IOpCl=  0 I1Cent=           0 NGrid=           0
         NMat0=    1 NMatS0=      1 NMatT0=    0 NMatD0=    1 NMtDS0=    0 NMtDT0=    0
 Symmetry not used in FoFCou.
 E= -680.038279361258    
 DIIS: error= 3.08D-02 at cycle   1 NSaved=   1.
 NSaved= 1 IEnMin= 1 EnMin= -680.038279361258     IErMin= 1 ErrMin= 3.08D-02
 ErrMax= 3.08D-02  0.00D+00 EMaxC= 1.00D-01 BMatC= 4.00D-01 BMatP= 4.00D-01
 IDIUse=3 WtCom= 6.92D-01 WtEn= 3.08D-01
 Coeff-Com:  0.100D+01
 Coeff-En:   0.100D+01
 Coeff:      0.100D+01
 Gap=     0.187 Goal=   None    Shift=    0.000
 GapD=    0.187 DampG=1.000 DampE=0.500 DampFc=0.5000 IDamp=-1.
 Damping current iteration by 5.00D-01
 RMSDP=7.97D-03 MaxDP=3.00D-01              OVMax= 3.92D-01

 Cycle   2  Pass 0  IDiag  1:
 RMSU=  3.96D-03    CP:  9.83D-01
 E= -680.039566490435     Delta-E=       -0.001287129177 Rises=F Damp=T
 DIIS: error= 2.05D-02 at cycle   2 NSaved=   2.
 NSaved= 2 IEnMin= 2 EnMin= -680.039566490435     IErMin= 2 ErrMin= 2.05D-02
 ErrMax= 2.05D-02  0.00D+00 EMaxC= 1.00D-01 BMatC= 1.38D-01 BMatP= 4.00D-01
 IDIUse=3 WtCom= 7.95D-01 WtEn= 2.05D-01
 Coeff-Com:  0.333D+00 0.667D+00
 Coeff-En:   0.498D+00 0.502D+00
 Coeff:      0.367D+00 0.633D+00
 Gap=     0.232 Goal=   None    Shift=    0.000
 RMSDP=2.75D-03 MaxDP=1.43D-01 DE=-1.29D-03 OVMax= 2.39D-01

 Cycle   3  Pass 0  IDiag  1:
 RMSU=  2.17D-03    CP:  9.67D-01  5.84D-01
 E= -680.315406081201     Delta-E=       -0.275839590766 Rises=F Damp=F
 DIIS: error= 1.45D-02 at cycle   3 NSaved=   3.
 NSaved= 3 IEnMin= 3 EnMin= -680.315406081201     IErMin= 3 ErrMin= 1.45D-02
 ErrMax= 1.45D-02  0.00D+00 EMaxC= 1.00D-01 BMatC= 5.91D-02 BMatP= 1.38D-01
 IDIUse=3 WtCom= 8.55D-01 WtEn= 1.45D-01
 Coeff-Com:  0.118D+00 0.384D+00 0.498D+00
 Coeff-En:   0.000D+00 0.000D+00 0.100D+01
 Coeff:      0.100D+00 0.328D+00 0.571D+00
 Gap=     0.191 Goal=   None    Shift=    0.000
 RMSDP=1.60D-03 MaxDP=5.56D-02 DE=-2.76D-01 OVMax= 8.85D-02

 Cycle   4  Pass 0  IDiag  1:
 RMSU=  8.98D-04    CP:  9.77D-01  7.40D-01  4.74D-01
 E= -680.359494124619     Delta-E=       -0.044088043418 Rises=F Damp=F
 DIIS: error= 7.74D-03 at cycle   4 NSaved=   4.
 NSaved= 4 IEnMin= 4 EnMin= -680.359494124619     IErMin= 4 ErrMin= 7.74D-03
 ErrMax= 7.74D-03  0.00D+00 EMaxC= 1.00D-01 BMatC= 1.37D-02 BMatP= 5.91D-02
 IDIUse=3 WtCom= 9.23D-01 WtEn= 7.74D-02
 Coeff-Com:  0.327D-01 0.839D-01 0.333D+00 0.551D+00
 Coeff-En:   0.000D+00 0.000D+00 0.198D+00 0.802D+00
 Coeff:      0.302D-01 0.774D-01 0.322D+00 0.570D+00
 Gap=     0.187 Goal=   None    Shift=    0.000
 RMSDP=5.99D-04 MaxDP=2.34D-02 DE=-4.41D-02 OVMax= 3.35D-02

 Cycle   5  Pass 0  IDiag  1:
 RMSU=  2.89D-04    CP:  9.75D-01  6.78D-01  6.30D-01  6.47D-01
 E= -680.369980491225     Delta-E=       -0.010486366606 Rises=F Damp=F
 DIIS: error= 2.76D-03 at cycle   5 NSaved=   5.
 NSaved= 5 IEnMin= 5 EnMin= -680.369980491225     IErMin= 5 ErrMin= 2.76D-03
 ErrMax= 2.76D-03  0.00D+00 EMaxC= 1.00D-01 BMatC= 1.52D-03 BMatP= 1.37D-02
 IDIUse=3 WtCom= 9.72D-01 WtEn= 2.76D-02
 Coeff-Com:  0.622D-02 0.802D-02 0.143D+00 0.359D+00 0.484D+00
 Coeff-En:   0.000D+00 0.000D+00 0.000D+00 0.643D-01 0.936D+00
 Coeff:      0.605D-02 0.780D-02 0.139D+00 0.351D+00 0.496D+00
 Gap=     0.189 Goal=   None    Shift=    0.000
 RMSDP=2.04D-04 MaxDP=7.83D-03 DE=-1.05D-02 OVMax= 1.57D-02

 Cycle   6  Pass 0  IDiag  1:
 RMSU=  9.43D-05    CP:  9.75D-01  6.81D-01  6.16D-01  7.03D-01  4.09D-01
 E= -680.371203418603     Delta-E=       -0.001222927379 Rises=F Damp=F
 DIIS: error= 9.17D-04 at cycle   6 NSaved=   6.
 NSaved= 6 IEnMin= 6 EnMin= -680.371203418603     IErMin= 6 ErrMin= 9.17D-04
 ErrMax= 9.17D-04  0.00D+00 EMaxC= 1.00D-01 BMatC= 1.54D-04 BMatP= 1.52D-03
 IDIUse=3 WtCom= 9.91D-01 WtEn= 9.17D-03
 Coeff-Com:  0.116D-02-0.150D-02 0.544D-01 0.154D+00 0.307D+00 0.485D+00
 Coeff-En:   0.000D+00 0.000D+00 0.000D+00 0.000D+00 0.783D-01 0.922D+00
 Coeff:      0.115D-02-0.148D-02 0.539D-01 0.152D+00 0.305D+00 0.489D+00
 Gap=     0.188 Goal=   None    Shift=    0.000
 RMSDP=6.45D-05 MaxDP=2.67D-03 DE=-1.22D-03 OVMax= 5.35D-03

 Cycle   7  Pass 0  IDiag  1:
 RMSU=  3.08D-05    CP:  9.75D-01  6.82D-01  6.20D-01  6.95D-01  5.16D-01
                    CP:  5.16D-01
 E= -680.371339855502     Delta-E=       -0.000136436898 Rises=F Damp=F
 DIIS: error= 1.97D-04 at cycle   7 NSaved=   7.
 NSaved= 7 IEnMin= 7 EnMin= -680.371339855502     IErMin= 7 ErrMin= 1.97D-04
 ErrMax= 1.97D-04  0.00D+00 EMaxC= 1.00D-01 BMatC= 1.16D-05 BMatP= 1.54D-04
 IDIUse=3 WtCom= 9.98D-01 WtEn= 1.97D-03
 EnCoef did     1 forward-backward iterations
 Coeff-Com:  0.154D-04-0.214D-02 0.150D-01 0.461D-01 0.123D+00 0.285D+00
 Coeff-Com:  0.532D+00
 Coeff-En:   0.000D+00 0.000D+00 0.000D+00 0.000D+00 0.000D+00 0.404D-03
 Coeff-En:   0.100D+01
 Coeff:      0.154D-04-0.214D-02 0.150D-01 0.460D-01 0.123D+00 0.285D+00
 Coeff:      0.533D+00
 Gap=     0.189 Goal=   None    Shift=    0.000
 RMSDP=1.56D-05 MaxDP=7.64D-04 DE=-1.36D-04 OVMax= 1.63D-03

 Cycle   8  Pass 0  IDiag  1:
 RMSU=  8.86D-06    CP:  9.75D-01  6.82D-01  6.21D-01  6.97D-01  5.13D-01
                    CP:  5.92D-01  6.62D-01
 E= -680.371349727194     Delta-E=       -0.000009871692 Rises=F Damp=F
 DIIS: error= 3.91D-05 at cycle   8 NSaved=   8.
 NSaved= 8 IEnMin= 8 EnMin= -680.371349727194     IErMin= 8 ErrMin= 3.91D-05
 ErrMax= 3.91D-05  0.00D+00 EMaxC= 1.00D-01 BMatC= 8.51D-07 BMatP= 1.16D-05
 IDIUse=1 WtCom= 1.00D+00 WtEn= 0.00D+00
 Coeff-Com: -0.243D-04-0.114D-02 0.360D-02 0.113D-01 0.433D-01 0.122D+00
 Coeff-Com:  0.293D+00 0.528D+00
 Coeff:     -0.243D-04-0.114D-02 0.360D-02 0.113D-01 0.433D-01 0.122D+00
 Coeff:      0.293D+00 0.528D+00
 Gap=     0.189 Goal=   None    Shift=    0.000
 RMSDP=5.17D-06 MaxDP=1.89D-04 DE=-9.87D-06 OVMax= 4.04D-04

 Initial convergence to 1.0D-05 achieved.  Increase integral accuracy.
 Cycle   9  Pass 1  IDiag  1:
 E= -680.371373737341     Delta-E=       -0.000024010147 Rises=F Damp=F
 DIIS: error= 1.76D-05 at cycle   1 NSaved=   1.
 NSaved= 1 IEnMin= 1 EnMin= -680.371373737341     IErMin= 1 ErrMin= 1.76D-05
 ErrMax= 1.76D-05  0.00D+00 EMaxC= 1.00D-01 BMatC= 1.27D-07 BMatP= 1.27D-07
 IDIUse=1 WtCom= 1.00D+00 WtEn= 0.00D+00
 Coeff-Com:  0.100D+01
 Coeff:      0.100D+01
 Gap=     0.189 Goal=   None    Shift=    0.000
 RMSDP=5.17D-06 MaxDP=1.89D-04 DE=-2.40D-05 OVMax= 2.28D-04

 Cycle  10  Pass 1  IDiag  1:
 RMSU=  9.93D-06    CP:  1.00D+00
 E= -680.371373648134     Delta-E=        0.000000089207 Rises=F Damp=F
 DIIS: error= 2.89D-05 at cycle   2 NSaved=   2.
 NSaved= 2 IEnMin= 1 EnMin= -680.371373737341     IErMin= 1 ErrMin= 1.76D-05
 ErrMax= 2.89D-05  0.00D+00 EMaxC= 1.00D-01 BMatC= 2.21D-07 BMatP= 1.27D-07
 IDIUse=1 WtCom= 1.00D+00 WtEn= 0.00D+00
 Coeff-Com:  0.584D+00 0.416D+00
 Coeff:      0.584D+00 0.416D+00
 Gap=     0.189 Goal=   None    Shift=    0.000
 RMSDP=2.54D-06 MaxDP=8.82D-05 DE= 8.92D-08 OVMax= 1.64D-04

 Cycle  11  Pass 1  IDiag  1:
 RMSU=  2.49D-06    CP:  1.00D+00  9.55D-01
 E= -680.371373827785     Delta-E=       -0.000000179651 Rises=F Damp=F
 DIIS: error= 9.87D-06 at cycle   3 NSaved=   3.
 NSaved= 3 IEnMin= 3 EnMin= -680.371373827785     IErMin= 3 ErrMin= 9.87D-06
 ErrMax= 9.87D-06  0.00D+00 EMaxC= 1.00D-01 BMatC= 2.22D-08 BMatP= 1.27D-07
 IDIUse=1 WtCom= 1.00D+00 WtEn= 0.00D+00
 Coeff-Com:  0.704D-01 0.239D+00 0.690D+00
 Coeff:      0.704D-01 0.239D+00 0.690D+00
 Gap=     0.189 Goal=   None    Shift=    0.000
 RMSDP=8.01D-07 MaxDP=3.56D-05 DE=-1.80D-07 OVMax= 4.69D-05

 Cycle  12  Pass 1  IDiag  1:
 RMSU=  5.55D-07    CP:  1.00D+00  9.74D-01  7.84D-01
 E= -680.371373840215     Delta-E=       -0.000000012430 Rises=F Damp=F
 DIIS: error= 4.51D-06 at cycle   4 NSaved=   4.
 NSaved= 4 IEnMin= 4 EnMin= -680.371373840215     IErMin= 4 ErrMin= 4.51D-06
 ErrMax= 4.51D-06  0.00D+00 EMaxC= 1.00D-01 BMatC= 6.84D-09 BMatP= 2.22D-08
 IDIUse=1 WtCom= 1.00D+00 WtEn= 0.00D+00
 Coeff-Com:  0.277D-03 0.131D+00 0.476D+00 0.393D+00
 Coeff:      0.277D-03 0.131D+00 0.476D+00 0.393D+00
 Gap=     0.189 Goal=   None    Shift=    0.000
 RMSDP=3.61D-07 MaxDP=1.37D-05 DE=-1.24D-08 OVMax= 3.06D-05

 Cycle  13  Pass 1  IDiag  1:
 RMSU=  1.10D-07    CP:  1.00D+00  9.77D-01  7.96D-01  3.88D-01
 E= -680.371373845734     Delta-E=       -0.000000005519 Rises=F Damp=F
 DIIS: error= 6.43D-07 at cycle   5 NSaved=   5.
 NSaved= 5 IEnMin= 5 EnMin= -680.371373845734     IErMin= 5 ErrMin= 6.43D-07
 ErrMax= 6.43D-07  0.00D+00 EMaxC= 1.00D-01 BMatC= 1.32D-10 BMatP= 6.84D-09
 IDIUse=1 WtCom= 1.00D+00 WtEn= 0.00D+00
 Coeff-Com: -0.276D-02 0.625D-01 0.231D+00 0.222D+00 0.488D+00
 Coeff:     -0.276D-02 0.625D-01 0.231D+00 0.222D+00 0.488D+00
 Gap=     0.189 Goal=   None    Shift=    0.000
 RMSDP=6.24D-08 MaxDP=2.09D-06 DE=-5.52D-09 OVMax= 5.10D-06

 Cycle  14  Pass 1  IDiag  1:
 RMSU=  3.84D-08    CP:  1.00D+00  9.77D-01  7.97D-01  4.27D-01  6.01D-01
 E= -680.371373845851     Delta-E=       -0.000000000117 Rises=F Damp=F
 DIIS: error= 2.40D-07 at cycle   6 NSaved=   6.
 NSaved= 6 IEnMin= 6 EnMin= -680.371373845851     IErMin= 6 ErrMin= 2.40D-07
 ErrMax= 2.40D-07  0.00D+00 EMaxC= 1.00D-01 BMatC= 1.35D-11 BMatP= 1.32D-10
 IDIUse=1 WtCom= 1.00D+00 WtEn= 0.00D+00
 Coeff-Com: -0.161D-02 0.275D-01 0.102D+00 0.107D+00 0.297D+00 0.468D+00
 Coeff:     -0.161D-02 0.275D-01 0.102D+00 0.107D+00 0.297D+00 0.468D+00
 Gap=     0.189 Goal=   None    Shift=    0.000
 RMSDP=2.09D-08 MaxDP=8.48D-07 DE=-1.17D-10 OVMax= 1.64D-06

 Cycle  15  Pass 1  IDiag  1:
 RMSU=  1.45D-08    CP:  1.00D+00  9.77D-01  7.95D-01  4.23D-01  6.50D-01
                    CP:  6.50D-01
 E= -680.371373845873     Delta-E=       -0.000000000022 Rises=F Damp=F
 DIIS: error= 7.45D-08 at cycle   7 NSaved=   7.
 NSaved= 7 IEnMin= 7 EnMin= -680.371373845873     IErMin= 7 ErrMin= 7.45D-08
 ErrMax= 7.45D-08  0.00D+00 EMaxC= 1.00D-01 BMatC= 1.61D-12 BMatP= 1.35D-11
 IDIUse=1 WtCom= 1.00D+00 WtEn= 0.00D+00
 Coeff-Com: -0.554D-03 0.567D-02 0.213D-01 0.280D-01 0.902D-01 0.279D+00
 Coeff-Com:  0.576D+00
 Coeff:     -0.554D-03 0.567D-02 0.213D-01 0.280D-01 0.902D-01 0.279D+00
 Coeff:      0.576D+00
 Gap=     0.189 Goal=   None    Shift=    0.000
 RMSDP=6.03D-09 MaxDP=2.13D-07 DE=-2.23D-11 OVMax= 3.88D-07

 SCF Done:  E(RB3LYP) =  -680.371373846     A.U. after   15 cycles
            NFock= 15  Conv=0.60D-08     -V/T= 2.0090
 KE= 6.743334662038D+02 PE=-3.447505649173D+03 EE= 1.161509395700D+03
 Leave Link  502 at Thu Jan 16 16:52:18 2025, MaxMem=  1610612736 cpu:              81.0 elap:               8.8
 (Enter /apl/gaussian/16c02/g16/l601.exe)
 Copying SCF densities to generalized density rwf, IOpCl= 0 IROHF=0.

 **********************************************************************

            Population analysis using the SCF Density.

 **********************************************************************

 Orbital symmetries:
       Occupied  (A) (A) (A) (A) (A) (A) (A) (A) (A) (A) (A) (A)
                 (A) (A) (A) (A) (A) (A) (A) (A) (A) (A) (A) (A)
                 (A) (A) (A) (A) (A) (A) (A) (A) (A) (A) (A) (A)
                 (A) (A) (A) (A) (A) (A) (A) (A) (A) (A) (A) (A)
                 (A) (A) (A)
       Virtual   (A) (A) (A) (A) (A) (A) (A) (A) (A) (A) (A) (A)
                 (A) (A) (A) (A) (A) (A) (A) (A) (A) (A) (A) (A)
                 (A) (A) (A) (A) (A) (A) (A) (A) (A) (A) (A) (A)
                 (A) (A) (A) (A) (A) (A) (A) (A) (A) (A) (A) (A)
                 (A) (A) (A) (A) (A) (A) (A) (A) (A) (A) (A) (A)
                 (A) (A) (A) (A) (A) (A) (A) (A) (A) (A) (A) (A)
                 (A) (A) (A) (A) (A) (A) (A) (A) (A) (A) (A) (A)
                 (A) (A) (A) (A) (A) (A) (A) (A) (A) (A) (A) (A)
                 (A) (A) (A) (A) (A) (A) (A) (A) (A) (A) (A) (A)
                 (A) (A) (A) (A) (A) (A) (A) (A) (A) (A) (A) (A)
                 (A) (A) (A) (A) (A) (A) (A) (A) (A) (A) (A) (A)
                 (A) (A) (A) (A) (A) (A) (A) (A) (A) (A) (A) (A)
                 (A) (A) (A) (A) (A) (A) (A) (A) (A) (A) (A) (A)
                 (A) (A) (A) (A) (A) (A) (A) (A) (A) (A) (A) (A)
                 (A) (A) (A) (A) (A) (A) (A) (A) (A) (A) (A)
 The electronic state is 1-A.
 Alpha  occ. eigenvalues --  -19.12164 -19.11955 -14.41423 -14.39541 -14.39267
 Alpha  occ. eigenvalues --  -14.33377 -10.32903 -10.30278 -10.26587 -10.25999
 Alpha  occ. eigenvalues --  -10.24114 -10.22252 -10.22186 -10.21461  -1.06996
 Alpha  occ. eigenvalues --   -1.04536  -1.03477  -0.96980  -0.93929  -0.90421
 Alpha  occ. eigenvalues --   -0.79845  -0.73754  -0.73149  -0.71178  -0.65636
 Alpha  occ. eigenvalues --   -0.63967  -0.60417  -0.58138  -0.53321  -0.50782
 Alpha  occ. eigenvalues --   -0.50695  -0.48143  -0.48057  -0.45660  -0.45625
 Alpha  occ. eigenvalues --   -0.45125  -0.43227  -0.42609  -0.41923  -0.41641
 Alpha  occ. eigenvalues --   -0.39569  -0.38996  -0.38914  -0.38564  -0.31729
 Alpha  occ. eigenvalues --   -0.29902  -0.28198  -0.28126  -0.26767  -0.25720
 Alpha  occ. eigenvalues --   -0.21805
 Alpha virt. eigenvalues --   -0.02952   0.02056   0.03988   0.08996   0.10932
 Alpha virt. eigenvalues --    0.11938   0.12467   0.12686   0.12980   0.13738
 Alpha virt. eigenvalues --    0.14865   0.16234   0.16722   0.17543   0.17759
 Alpha virt. eigenvalues --    0.19189   0.19622   0.20654   0.22292   0.24329
 Alpha virt. eigenvalues --    0.27202   0.29394   0.30812   0.33752   0.35159
 Alpha virt. eigenvalues --    0.37072   0.38816   0.41827   0.46243   0.47611
 Alpha virt. eigenvalues --    0.48048   0.48438   0.50704   0.51415   0.52540
 Alpha virt. eigenvalues --    0.53724   0.56204   0.56829   0.58813   0.59361
 Alpha virt. eigenvalues --    0.62292   0.63226   0.63268   0.66044   0.66808
 Alpha virt. eigenvalues --    0.67186   0.67921   0.70973   0.71891   0.72078
 Alpha virt. eigenvalues --    0.73084   0.75951   0.78275   0.79297   0.80189
 Alpha virt. eigenvalues --    0.82541   0.83328   0.84216   0.84336   0.84671
 Alpha virt. eigenvalues --    0.86059   0.86329   0.87521   0.87723   0.90193
 Alpha virt. eigenvalues --    0.90635   0.91897   0.93494   0.93677   0.95564
 Alpha virt. eigenvalues --    0.95842   0.97704   1.01208   1.04178   1.05231
 Alpha virt. eigenvalues --    1.08382   1.09225   1.11023   1.16519   1.18630
 Alpha virt. eigenvalues --    1.20646   1.21464   1.24629   1.28276   1.29142
 Alpha virt. eigenvalues --    1.31618   1.32273   1.34145   1.34871   1.35801
 Alpha virt. eigenvalues --    1.38035   1.39679   1.39916   1.43929   1.46309
 Alpha virt. eigenvalues --    1.46973   1.49667   1.51724   1.61283   1.62546
 Alpha virt. eigenvalues --    1.64564   1.72450   1.74168   1.75103   1.77465
 Alpha virt. eigenvalues --    1.78618   1.80140   1.81146   1.84588   1.86260
 Alpha virt. eigenvalues --    1.86801   1.87978   1.91254   1.93618   1.94935
 Alpha virt. eigenvalues --    1.95685   1.96134   1.98994   1.99715   2.03537
 Alpha virt. eigenvalues --    2.06380   2.06517   2.07360   2.09407   2.10279
 Alpha virt. eigenvalues --    2.12710   2.14210   2.17987   2.21581   2.23009
 Alpha virt. eigenvalues --    2.23247   2.26380   2.27916   2.28387   2.29539
 Alpha virt. eigenvalues --    2.30527   2.32615   2.33275   2.33447   2.38261
 Alpha virt. eigenvalues --    2.40654   2.42130   2.45469   2.48037   2.48674
 Alpha virt. eigenvalues --    2.55825   2.57289   2.61602   2.62390   2.66826
 Alpha virt. eigenvalues --    2.69587   2.70159   2.75465   2.76411   2.77597
 Alpha virt. eigenvalues --    2.84026   2.93150   2.94405   2.96069   3.01759
 Alpha virt. eigenvalues --    3.03025   3.07436   3.19196   3.37777   3.51325
 Alpha virt. eigenvalues --    3.97937   4.04502   4.09166   4.12282   4.16596
 Alpha virt. eigenvalues --    4.20932   4.22695   4.27933   4.34017   4.36182
 Alpha virt. eigenvalues --    4.44789   4.61483   4.65993   4.89098
          Condensed to atoms (all electrons):
               1          2          3          4          5          6
     1  C    4.978029   0.276946  -0.039537   0.005145   0.011400  -0.045755
     2  N    0.276946   6.856567   0.402141  -0.078412  -0.060531   0.324436
     3  C   -0.039537   0.402141   4.731868   0.503437  -0.111040  -0.086747
     4  N    0.005145  -0.078412   0.503437   6.833329   0.419012  -0.078084
     5  C    0.011400  -0.060531  -0.111040   0.419012   4.722248   0.426190
     6  C   -0.045755   0.324436  -0.086747  -0.078084   0.426190   5.133082
     7  C   -0.002509  -0.063634   0.005482   0.007877  -0.048457   0.292704
     8  O    0.007703  -0.011025  -0.000265  -0.000074   0.004912  -0.076456
     9  N    0.000206   0.002802  -0.000172  -0.000062  -0.010778  -0.083480
    10  C   -0.000013   0.000329   0.000135   0.000882  -0.028225  -0.014271
    11  O    0.000000  -0.000000   0.000001  -0.000036   0.000547   0.000379
    12  N   -0.000041   0.006545   0.004237  -0.072104   0.243372  -0.054448
    13  C    0.000001  -0.000032   0.000072  -0.001903  -0.034824   0.005050
    14  C   -0.000002  -0.000069   0.000004   0.000006  -0.000188   0.006842
    15  H    0.365372  -0.033844  -0.003318   0.000205  -0.000163   0.003719
    16  H    0.378733  -0.036540   0.001050  -0.000136  -0.000199  -0.002739
    17  H    0.378733  -0.036541   0.001050  -0.000136  -0.000199  -0.002739
    18  H   -0.000116  -0.052236   0.379797  -0.037094   0.004839   0.004088
    19  H   -0.000000  -0.000005  -0.000025   0.002975  -0.001392   0.000099
    20  H   -0.000000   0.000001   0.000002   0.000326   0.003756  -0.000105
    21  H   -0.000000  -0.000005  -0.000025   0.002975  -0.001392   0.000099
    22  H   -0.000000   0.000002  -0.000000   0.000000   0.000010  -0.000166
    23  H   -0.000000   0.000002  -0.000000   0.000000   0.000010  -0.000166
    24  H   -0.000003   0.000005   0.000000   0.000000  -0.000108   0.001521
               7          8          9         10         11         12
     1  C   -0.002509   0.007703   0.000206  -0.000013   0.000000  -0.000041
     2  N   -0.063634  -0.011025   0.002802   0.000329  -0.000000   0.006545
     3  C    0.005482  -0.000265  -0.000172   0.000135   0.000001   0.004237
     4  N    0.007877  -0.000074  -0.000062   0.000882  -0.000036  -0.072104
     5  C   -0.048457   0.004912  -0.010778  -0.028225   0.000547   0.243372
     6  C    0.292704  -0.076456  -0.083480  -0.014271   0.000379  -0.054448
     7  C    4.449519   0.557338   0.214584  -0.013008   0.000122  -0.021745
     8  O    0.557338   8.133270  -0.089041   0.000235  -0.000021   0.000078
     9  N    0.214584  -0.089041   7.317465   0.245229  -0.095395  -0.089773
    10  C   -0.013008   0.000235   0.245229   4.208592   0.590225   0.293261
    11  O    0.000122  -0.000021  -0.095395   0.590225   8.098330  -0.088155
    12  N   -0.021745   0.000078  -0.089773   0.293261  -0.088155   7.188955
    13  C   -0.000028   0.000003   0.003749  -0.032285  -0.007008   0.285797
    14  C   -0.028225  -0.006351   0.261586  -0.028488   0.005558   0.004164
    15  H    0.000317   0.000356   0.000005   0.000000   0.000000   0.000002
    16  H    0.001889   0.001801   0.000015  -0.000001   0.000000  -0.000003
    17  H    0.001889   0.001801   0.000015  -0.000001   0.000000  -0.000003
    18  H   -0.000082  -0.000001   0.000001   0.000003  -0.000000  -0.000103
    19  H   -0.000004  -0.000000  -0.000056   0.001530   0.000467  -0.042348
    20  H   -0.000007   0.000000   0.000623  -0.000614   0.016468  -0.030104
    21  H   -0.000004  -0.000000  -0.000056   0.001530   0.000467  -0.042347
    22  H    0.001576   0.000409  -0.040286  -0.003049   0.003809  -0.000015
    23  H    0.001577   0.000409  -0.040285  -0.003049   0.003810  -0.000015
    24  H   -0.000554   0.015159  -0.032476   0.004338   0.000697  -0.000016
              13         14         15         16         17         18
     1  C    0.000001  -0.000002   0.365372   0.378733   0.378733  -0.000116
     2  N   -0.000032  -0.000069  -0.033844  -0.036540  -0.036541  -0.052236
     3  C    0.000072   0.000004  -0.003318   0.001050   0.001050   0.379797
     4  N   -0.001903   0.000006   0.000205  -0.000136  -0.000136  -0.037094
     5  C   -0.034824  -0.000188  -0.000163  -0.000199  -0.000199   0.004839
     6  C    0.005050   0.006842   0.003719  -0.002739  -0.002739   0.004088
     7  C   -0.000028  -0.028225   0.000317   0.001889   0.001889  -0.000082
     8  O    0.000003  -0.006351   0.000356   0.001801   0.001801  -0.000001
     9  N    0.003749   0.261586   0.000005   0.000015   0.000015   0.000001
    10  C   -0.032285  -0.028488   0.000000  -0.000001  -0.000001   0.000003
    11  O   -0.007008   0.005558   0.000000   0.000000   0.000000  -0.000000
    12  N    0.285797   0.004164   0.000002  -0.000003  -0.000003  -0.000103
    13  C    4.976650  -0.000105  -0.000000   0.000000   0.000000  -0.000009
    14  C   -0.000105   4.974790  -0.000000   0.000001   0.000001  -0.000000
    15  H   -0.000000  -0.000000   0.555397  -0.027712  -0.027712   0.003833
    16  H    0.000000   0.000001  -0.027712   0.518258  -0.029697  -0.000049
    17  H    0.000000   0.000001  -0.027712  -0.029697   0.518260  -0.000049
    18  H   -0.000009  -0.000000   0.003833  -0.000049  -0.000049   0.524510
    19  H    0.380842   0.000002  -0.000000  -0.000000   0.000000  -0.000000
    20  H    0.368062  -0.000015   0.000000   0.000000   0.000000  -0.000000
    21  H    0.380841   0.000002  -0.000000   0.000000  -0.000000  -0.000000
    22  H    0.000001   0.381929   0.000000  -0.000000   0.000000   0.000000
    23  H    0.000001   0.381928   0.000000   0.000000  -0.000000   0.000000
    24  H    0.000001   0.365418  -0.000000   0.000000   0.000000  -0.000000
              19         20         21         22         23         24
     1  C   -0.000000  -0.000000  -0.000000  -0.000000  -0.000000  -0.000003
     2  N   -0.000005   0.000001  -0.000005   0.000002   0.000002   0.000005
     3  C   -0.000025   0.000002  -0.000025  -0.000000  -0.000000   0.000000
     4  N    0.002975   0.000326   0.002975   0.000000   0.000000   0.000000
     5  C   -0.001392   0.003756  -0.001392   0.000010   0.000010  -0.000108
     6  C    0.000099  -0.000105   0.000099  -0.000166  -0.000166   0.001521
     7  C   -0.000004  -0.000007  -0.000004   0.001576   0.001577  -0.000554
     8  O   -0.000000   0.000000  -0.000000   0.000409   0.000409   0.015159
     9  N   -0.000056   0.000623  -0.000056  -0.040286  -0.040285  -0.032476
    10  C    0.001530  -0.000614   0.001530  -0.003049  -0.003049   0.004338
    11  O    0.000467   0.016468   0.000467   0.003809   0.003810   0.000697
    12  N   -0.042348  -0.030104  -0.042347  -0.000015  -0.000015  -0.000016
    13  C    0.380842   0.368062   0.380841   0.000001   0.000001   0.000001
    14  C    0.000002  -0.000015   0.000002   0.381929   0.381928   0.365418
    15  H   -0.000000   0.000000  -0.000000   0.000000   0.000000  -0.000000
    16  H   -0.000000   0.000000   0.000000  -0.000000   0.000000   0.000000
    17  H    0.000000   0.000000  -0.000000   0.000000  -0.000000   0.000000
    18  H   -0.000000  -0.000000  -0.000000   0.000000   0.000000  -0.000000
    19  H    0.540630  -0.025473  -0.034631  -0.000000   0.000000  -0.000000
    20  H   -0.025473   0.486940  -0.025472  -0.000001  -0.000001  -0.000000
    21  H   -0.034631  -0.025472   0.540630   0.000000  -0.000000  -0.000000
    22  H   -0.000000  -0.000001   0.000000   0.537465  -0.033187  -0.026744
    23  H    0.000000  -0.000001  -0.000000  -0.033187   0.537463  -0.026744
    24  H   -0.000000  -0.000000  -0.000000  -0.026744  -0.026744   0.500265
 Mulliken charges:
               1
     1  C   -0.314292
     2  N   -0.496902
     3  C    0.211855
     4  N   -0.508128
     5  C    0.461199
     6  C    0.246950
     7  C    0.643384
     8  O   -0.540243
     9  N   -0.564422
    10  C    0.776716
    11  O   -0.530264
    12  N   -0.585187
    13  C   -0.324877
    14  C   -0.318786
    15  H    0.163543
    16  H    0.195329
    17  H    0.195328
    18  H    0.172666
    19  H    0.177390
    20  H    0.205615
    21  H    0.177391
    22  H    0.178247
    23  H    0.178248
    24  H    0.199241
 Sum of Mulliken charges =  -0.00000
 Mulliken charges with hydrogens summed into heavy atoms:
               1
     1  C    0.239908
     2  N   -0.496902
     3  C    0.384521
     4  N   -0.508128
     5  C    0.461199
     6  C    0.246950
     7  C    0.643384
     8  O   -0.540243
     9  N   -0.564422
    10  C    0.776716
    11  O   -0.530264
    12  N   -0.585187
    13  C    0.235519
    14  C    0.236951
 Electronic spatial extent (au):  <R**2>=           2526.0500
 Charge=             -0.0000 electrons
 Dipole moment (field-independent basis, Debye):
    X=             -3.5138    Y=              0.6311    Z=             -0.0000  Tot=              3.5700
 Quadrupole moment (field-independent basis, Debye-Ang):
   XX=            -74.0978   YY=            -84.2004   ZZ=            -78.9971
   XY=             -1.2770   XZ=             -0.0000   YZ=              0.0000
 Traceless Quadrupole moment (field-independent basis, Debye-Ang):
   XX=              5.0006   YY=             -5.1020   ZZ=              0.1014
   XY=             -1.2770   XZ=             -0.0000   YZ=              0.0000
 Octapole moment (field-independent basis, Debye-Ang**2):
  XXX=            -88.6845  YYY=              8.7132  ZZZ=              0.0001  XYY=             29.5631
  XXY=            -10.1816  XXZ=             -0.0002  XZZ=              4.3146  YZZ=             -3.9195
  YYZ=             -0.0002  XYZ=             -0.0000
 Hexadecapole moment (field-independent basis, Debye-Ang**3):
 XXXX=          -1804.7867 YYYY=          -1329.6165 ZZZZ=            -91.1744 XXXY=            -28.8519
 XXXZ=             -0.0007 YYYX=             14.8413 YYYZ=              0.0003 ZZZX=              0.0001
 ZZZY=             -0.0001 XXYY=           -466.8013 XXZZ=           -324.0781 YYZZ=           -223.4838
 XXYZ=              0.0001 YYXZ=             -0.0001 ZZXY=              6.6893
 N-N= 9.312914134235D+02 E-N=-3.447505657153D+03  KE= 6.743334662038D+02
 No NMR shielding tensors so no spin-rotation constants.
 Leave Link  601 at Thu Jan 16 16:52:18 2025, MaxMem=  1610612736 cpu:               0.6 elap:               0.2
 (Enter /apl/gaussian/16c02/g16/l701.exe)
 ... and contract with generalized density number  0.
 Compute integral first derivatives.
 Leave Link  701 at Thu Jan 16 16:52:19 2025, MaxMem=  1610612736 cpu:               0.6 elap:               0.3
 (Enter /apl/gaussian/16c02/g16/l702.exe)
 L702 exits ... SP integral derivatives will be done elsewhere.
 Leave Link  702 at Thu Jan 16 16:52:20 2025, MaxMem=  1610612736 cpu:               0.0 elap:               0.2
 (Enter /apl/gaussian/16c02/g16/l703.exe)
 Integral derivatives from FoFJK, PRISM(SPDF).
 Compute integral first derivatives, UseDBF=F ICtDFT=           0.
 Calling FoFJK, ICntrl=      2127 FMM=F ISym2X=0 I1Cent= 0 IOpClX= 0 NMat=1 NMatS=1 NMatT=0.
 FoFJK:  IHMeth= 1 ICntrl=    2127 DoSepK=F KAlg= 0 I1Cent=           0 FoldK=F
 IRaf=         0 NMat=       1 IRICut=       1 DoRegI=T DoRafI=F ISym2E= 0 IDoP0=0 IntGTp=1.
 FoFCou: FMM=F IPFlag=           0 FMFlag=      100000 FMFlg1=         800
         NFxFlg=           0 DoJE=F BraDBF=F KetDBF=F FulRan=T
         wScrn=  0.000000 ICntrl=      2127 IOpCl=  0 I1Cent=           0 NGrid=           0
         NMat0=    1 NMatS0=      1 NMatT0=    0 NMatD0=    1 NMtDS0=    0 NMtDT0=    0
 Symmetry not used in FoFCou.
 Leave Link  703 at Thu Jan 16 16:52:23 2025, MaxMem=  1610612736 cpu:              26.6 elap:               2.8
 (Enter /apl/gaussian/16c02/g16/l716.exe)
 Dipole        =-1.38243447D+00 2.48288654D-01-6.52585337D-06
 ***** Axes restored to original set *****
 -------------------------------------------------------------------
 Center     Atomic                   Forces (Hartrees/Bohr)
 Number     Number              X              Y              Z
 -------------------------------------------------------------------
      1        6           0.003797126    0.006170662    0.000816986
      2        7           0.021503473   -0.015065125   -0.005247702
      3        6          -0.005169826    0.016200192    0.003744570
      4        7          -0.011621556   -0.011012880   -0.000945201
      5        6          -0.004980124   -0.018645429   -0.003153918
      6        6          -0.005590298   -0.001780842    0.000239454
      7        6           0.015715587    0.005252115   -0.000624884
      8        8          -0.004914143    0.011049289    0.002700677
      9        7           0.005377009   -0.005005177   -0.001557180
     10        6          -0.020915167   -0.003063046    0.001607085
     11        8           0.017808187    0.001825981   -0.001522702
     12        7          -0.005518043    0.010128368    0.002582445
     13        6          -0.003973278   -0.009674329   -0.001489764
     14        6          -0.015937506    0.008198095    0.003303648
     15        1          -0.001241283   -0.000784108   -0.000023494
     16        1           0.003473805    0.003194060    0.003427977
     17        1           0.002836588    0.004383871   -0.002599537
     18        1          -0.000232548    0.001903982    0.000400400
     19        1           0.000616221   -0.001653547   -0.002321382
     20        1           0.004553301    0.007608336    0.001020444
     21        1           0.001004856   -0.002378599    0.001354500
     22        1          -0.001383985    0.001131728   -0.001628701
     23        1          -0.000981071    0.000379723    0.002177376
     24        1           0.005772676   -0.008363322   -0.002261097
 -------------------------------------------------------------------
 Cartesian Forces:  Max     0.021503473 RMS     0.007339626
 Leave Link  716 at Thu Jan 16 16:52:23 2025, MaxMem=  1610612736 cpu:               0.0 elap:               0.0
 (Enter /apl/gaussian/16c02/g16/l103.exe)

 GradGradGradGradGradGradGradGradGradGradGradGradGradGradGradGradGradGrad
 Berny optimization.
 FormGI is forming the generalized inverse of G from B-inverse, IUseBI=4.
 Internal  Forces:  Max     0.018675372 RMS     0.005272577
 Search for a local minimum.
 Step number   1 out of a maximum of  132
 All quantities printed in internal units (Hartrees-Bohrs-Radians)
 RMS Force = .52726D-02 SwitMx=.10000D-02 MixMth= 1
 Mixed Optimization -- RFO/linear search
 Second derivative matrix not updated -- first step.
 ITU=  0
     Eigenvalues ---    0.01011   0.01033   0.01152   0.01428   0.01527
     Eigenvalues ---    0.01635   0.01675   0.01694   0.01764   0.01865
     Eigenvalues ---    0.02093   0.02183   0.02224   0.02300   0.02392
     Eigenvalues ---    0.07308   0.07422   0.07709   0.07767   0.07838
     Eigenvalues ---    0.07888   0.16000   0.16000   0.16000   0.16000
     Eigenvalues ---    0.16000   0.16000   0.16000   0.16000   0.16000
     Eigenvalues ---    0.16000   0.23649   0.25000   0.25000   0.25000
     Eigenvalues ---    0.25000   0.25000   0.25000   0.25000   0.25000
     Eigenvalues ---    0.25000   0.34242   0.34242   0.34283   0.34283
     Eigenvalues ---    0.34456   0.34462   0.34489   0.34489   0.34498
     Eigenvalues ---    0.35647   0.38056   0.38274   0.39470   0.39916
     Eigenvalues ---    0.41445   0.44286   0.44721   0.45861   0.47489
     Eigenvalues ---    0.49301   0.51294   0.52180   0.60005   0.89139
     Eigenvalues ---    0.92176
 RFO step:  Lambda=-1.11043554D-02 EMin= 1.01125447D-02
 Linear search not attempted -- first point.
 Iteration  1 RMS(Cart)=  0.03968283 RMS(Int)=  0.00102302
 Iteration  2 RMS(Cart)=  0.00100697 RMS(Int)=  0.00017148
 Iteration  3 RMS(Cart)=  0.00000018 RMS(Int)=  0.00017148
 ITry= 1 IFail=0 DXMaxC= 1.65D-01 DCOld= 1.00D+10 DXMaxT= 3.00D-01 DXLimC= 3.00D+00 Rises=F
 Variable       Old X    -DE/DX   Delta X   Delta X   Delta X     New X
                                 (Linear)    (Quad)   (Total)
    R1        2.72280   0.01496   0.00000   0.03687   0.03687   2.75966
    R2        2.06557  -0.00061   0.00000  -0.00172  -0.00172   2.06384
    R3        2.06513  -0.00048   0.00000  -0.00134  -0.00134   2.06378
    R4        2.06513  -0.00048   0.00000  -0.00134  -0.00134   2.06378
    R5        2.58877  -0.00515   0.00000  -0.01177  -0.01165   2.57712
    R6        2.58012   0.01469   0.00000   0.02885   0.02879   2.60891
    R7        2.49142   0.01366   0.00000   0.01960   0.01973   2.51114
    R8        2.04637  -0.00123   0.00000  -0.00335  -0.00335   2.04302
    R9        2.57414  -0.00361   0.00000  -0.00627  -0.00631   2.56783
   R10        2.57342   0.01868   0.00000   0.03903   0.03888   2.61229
   R11        2.59607   0.00398   0.00000   0.00800   0.00795   2.60403
   R12        2.68553   0.01244   0.00000   0.03073   0.03076   2.71629
   R13        2.31946   0.00706   0.00000   0.00757   0.00757   2.32703
   R14        2.64180   0.00974   0.00000   0.02034   0.02038   2.66218
   R15        2.66616   0.00004   0.00000  -0.00202  -0.00201   2.66415
   R16        2.73969   0.00786   0.00000   0.01997   0.01997   2.75966
   R17        2.33332  -0.01784   0.00000  -0.01977  -0.01977   2.31356
   R18        2.63669  -0.00206   0.00000  -0.00611  -0.00615   2.63054
   R19        2.74283   0.00436   0.00000   0.01114   0.01114   2.75398
   R20        2.06855  -0.00026   0.00000  -0.00073  -0.00073   2.06782
   R21        2.06568  -0.00353   0.00000  -0.00993  -0.00993   2.05575
   R22        2.06855  -0.00026   0.00000  -0.00073  -0.00073   2.06782
   R23        2.06923  -0.00086   0.00000  -0.00244  -0.00244   2.06679
   R24        2.06923  -0.00086   0.00000  -0.00244  -0.00244   2.06679
   R25        2.06499  -0.00350   0.00000  -0.00984  -0.00984   2.05515
    A1        1.91085  -0.00402   0.00000  -0.02302  -0.02283   1.88802
    A2        1.89499   0.00683   0.00000   0.03967   0.03939   1.93438
    A3        1.89499   0.00683   0.00000   0.03967   0.03939   1.93438
    A4        1.91438  -0.00130   0.00000  -0.00712  -0.00693   1.90745
    A5        1.91438  -0.00130   0.00000  -0.00712  -0.00693   1.90745
    A6        1.93393  -0.00689   0.00000  -0.04126  -0.04197   1.89196
    A7        2.20262   0.00654   0.00000   0.02535   0.02533   2.22795
    A8        2.21229   0.00341   0.00000   0.01338   0.01336   2.22565
    A9        1.86827  -0.00995   0.00000  -0.03873  -0.03869   1.82958
   A10        1.94847   0.01304   0.00000   0.04878   0.04897   1.99744
   A11        2.14537  -0.00808   0.00000  -0.03350  -0.03359   2.11178
   A12        2.18934  -0.00496   0.00000  -0.01528  -0.01538   2.17396
   A13        1.82220  -0.00465   0.00000  -0.02247  -0.02236   1.79984
   A14        1.95402  -0.00132   0.00000  -0.00199  -0.00213   1.95189
   A15        2.20267   0.00217   0.00000   0.00295   0.00308   2.20575
   A16        2.12650  -0.00085   0.00000  -0.00096  -0.00096   2.12554
   A17        1.83181   0.00288   0.00000   0.01441   0.01421   1.84602
   A18        2.30045  -0.00070   0.00000  -0.01038  -0.01027   2.29018
   A19        2.15092  -0.00218   0.00000  -0.00403  -0.00394   2.14698
   A20        2.14196   0.01488   0.00000   0.05489   0.05487   2.19682
   A21        1.96817  -0.00614   0.00000  -0.01936  -0.01931   1.94886
   A22        2.17306  -0.00873   0.00000  -0.03553  -0.03556   2.13750
   A23        2.19337   0.00625   0.00000   0.02106   0.02108   2.21445
   A24        2.06159  -0.00047   0.00000  -0.00038  -0.00039   2.06120
   A25        2.02823  -0.00577   0.00000  -0.02068  -0.02069   2.00753
   A26        2.11009  -0.00307   0.00000  -0.00872  -0.00869   2.10140
   A27        2.04534   0.00119   0.00000  -0.00152  -0.00158   2.04376
   A28        2.12776   0.00188   0.00000   0.01024   0.01027   2.13803
   A29        2.08208   0.00174   0.00000   0.00482   0.00471   2.08678
   A30        2.09555   0.00094   0.00000   0.00454   0.00459   2.10014
   A31        2.10556  -0.00268   0.00000  -0.00935  -0.00930   2.09626
   A32        1.90334   0.00392   0.00000   0.02373   0.02364   1.92698
   A33        1.95327  -0.01284   0.00000  -0.07677  -0.07656   1.87672
   A34        1.90335   0.00392   0.00000   0.02373   0.02363   1.92698
   A35        1.89548   0.00403   0.00000   0.02189   0.02210   1.91758
   A36        1.91267  -0.00304   0.00000  -0.01424  -0.01460   1.89807
   A37        1.89548   0.00403   0.00000   0.02189   0.02210   1.91758
   A38        1.90159   0.00474   0.00000   0.02983   0.02951   1.93109
   A39        1.90159   0.00474   0.00000   0.02982   0.02950   1.93109
   A40        1.96613  -0.01565   0.00000  -0.09592  -0.09573   1.87040
   A41        1.89173  -0.00240   0.00000  -0.00464  -0.00542   1.88631
   A42        1.90074   0.00446   0.00000   0.02175   0.02194   1.92268
   A43        1.90074   0.00446   0.00000   0.02175   0.02194   1.92268
    D1        0.00001   0.00000   0.00000  -0.00000  -0.00000   0.00001
    D2       -3.14158   0.00000   0.00000  -0.00000  -0.00000  -3.14158
    D3        2.08963   0.00014   0.00000   0.00158   0.00122   2.09084
    D4       -1.05196   0.00014   0.00000   0.00157   0.00122  -1.05075
    D5       -2.08961  -0.00014   0.00000  -0.00158  -0.00122  -2.09083
    D6        1.05199  -0.00014   0.00000  -0.00158  -0.00122   1.05077
    D7       -3.14159  -0.00000   0.00000  -0.00000  -0.00000  -3.14159
    D8        0.00000  -0.00000   0.00000  -0.00000  -0.00000   0.00000
    D9       -0.00000  -0.00000   0.00000  -0.00000  -0.00000  -0.00000
   D10       -3.14159  -0.00000   0.00000  -0.00000  -0.00000   3.14159
   D11        3.14159   0.00000   0.00000   0.00000   0.00000   3.14159
   D12       -0.00000   0.00000   0.00000   0.00000   0.00000  -0.00000
   D13       -0.00000   0.00000   0.00000   0.00000   0.00000   0.00000
   D14        3.14159   0.00000   0.00000   0.00000   0.00000  -3.14159
   D15        0.00000  -0.00000   0.00000  -0.00000  -0.00000   0.00000
   D16        3.14159   0.00000   0.00000   0.00000   0.00000   3.14159
   D17       -0.00000   0.00000   0.00000   0.00000   0.00000  -0.00000
   D18       -3.14159  -0.00000   0.00000  -0.00000  -0.00000  -3.14159
   D19        0.00000  -0.00000   0.00000  -0.00000  -0.00000  -0.00000
   D20       -3.14159  -0.00000   0.00000  -0.00000  -0.00000  -3.14159
   D21        3.14159   0.00000   0.00000  -0.00000  -0.00000   3.14159
   D22       -0.00000   0.00000   0.00000   0.00000   0.00000  -0.00000
   D23        3.14159   0.00000   0.00000   0.00000   0.00000   3.14159
   D24       -0.00000   0.00000   0.00000   0.00000   0.00000   0.00000
   D25       -0.00000  -0.00000   0.00000  -0.00000  -0.00000  -0.00000
   D26       -3.14159  -0.00000   0.00000  -0.00000  -0.00000  -3.14159
   D27       -0.00000   0.00000   0.00000   0.00000   0.00000   0.00000
   D28        3.14159   0.00000   0.00000   0.00000   0.00000   3.14159
   D29        3.14159   0.00000   0.00000   0.00000   0.00000   3.14159
   D30       -0.00000  -0.00000   0.00000  -0.00000  -0.00000  -0.00000
   D31        0.00000   0.00000   0.00000   0.00000   0.00000   0.00000
   D32        3.14159  -0.00000   0.00000   0.00000   0.00000   3.14159
   D33       -3.14159  -0.00000   0.00000  -0.00000  -0.00000  -3.14159
   D34       -0.00000  -0.00000   0.00000  -0.00000  -0.00000  -0.00000
   D35        3.14159   0.00000   0.00000   0.00000   0.00000   3.14159
   D36       -0.00001  -0.00000   0.00000  -0.00000  -0.00000  -0.00001
   D37       -0.00000   0.00000   0.00000   0.00000   0.00000   0.00000
   D38        3.14159  -0.00000   0.00000  -0.00000  -0.00000   3.14159
   D39       -2.11119   0.00127   0.00000   0.01428   0.01467  -2.09651
   D40        2.11125  -0.00127   0.00000  -0.01428  -0.01468   2.09657
   D41        0.00003   0.00000   0.00000  -0.00000  -0.00000   0.00003
   D42        1.03040   0.00127   0.00000   0.01428   0.01467   1.04507
   D43       -1.03035  -0.00127   0.00000  -0.01428  -0.01468  -1.04503
   D44       -3.14157   0.00000   0.00000  -0.00000  -0.00000  -3.14157
   D45        0.00000   0.00000   0.00000   0.00000   0.00000   0.00000
   D46       -3.14159   0.00000   0.00000   0.00000   0.00000  -3.14159
   D47       -3.14159  -0.00000   0.00000  -0.00000  -0.00000  -3.14159
   D48        0.00000  -0.00000   0.00000  -0.00000  -0.00000  -0.00000
   D49        1.04406   0.00048   0.00000   0.00545   0.00569   1.04974
   D50       -3.14158   0.00000   0.00000   0.00000   0.00000  -3.14158
   D51       -1.04403  -0.00048   0.00000  -0.00545  -0.00569  -1.04972
   D52       -2.09753   0.00048   0.00000   0.00545   0.00569  -2.09185
   D53        0.00001   0.00000   0.00000   0.00000   0.00000   0.00001
   D54        2.09756  -0.00048   0.00000  -0.00546  -0.00569   2.09188
         Item               Value     Threshold  Converged?
 Maximum Force            0.018675     0.000450     NO 
 RMS     Force            0.005273     0.000300     NO 
 Maximum Displacement     0.164939     0.001800     NO 
 RMS     Displacement     0.039742     0.001200     NO 
 Predicted change in Energy=-5.814035D-03
 Lowest energy point so far.  Saving SCF results.
 GradGradGradGradGradGradGradGradGradGradGradGradGradGradGradGradGradGrad

 Leave Link  103 at Thu Jan 16 16:52:23 2025, MaxMem=  1610612736 cpu:               0.2 elap:               0.2
 (Enter /apl/gaussian/16c02/g16/l202.exe)
                          Input orientation:                          
 ---------------------------------------------------------------------
 Center     Atomic      Atomic             Coordinates (Angstroms)
 Number     Number       Type             X           Y           Z
 ---------------------------------------------------------------------
      1          6           0        3.317543    0.617505   -0.228884
      2          7           0        2.154129   -0.263685   -0.279817
      3          6           0        2.133474   -1.601878   -0.541794
      4          7           0        0.922021   -2.147574   -0.521423
      5          6           0        0.114357   -1.094884   -0.228223
      6          6           0        0.832154    0.076263   -0.072933
      7          6           0        0.216233    1.336510    0.240964
      8          8           0        0.802802    2.408851    0.390625
      9          7           0       -1.181841    1.215463    0.364893
     10          6           0       -1.946029    0.040419    0.213743
     11          8           0       -3.162502    0.070902    0.348386
     12          7           0       -1.256259   -1.129864   -0.090207
     13          6           0       -1.981341   -2.382460   -0.260802
     14          6           0       -1.950609    2.415613    0.683090
     15          1           0        4.206908    0.020122   -0.440855
     16          1           0        3.233488    1.414974   -0.970284
     17          1           0        3.416288    1.073708    0.758449
     18          1           0        3.046728   -2.143523   -0.745277
     19          1           0       -1.639709   -3.123452    0.468296
     20          1           0       -3.037800   -2.172942   -0.107751
     21          1           0       -1.823238   -2.780789   -1.267630
     22          1           0       -2.495710    2.286572    1.622447
     23          1           0       -2.678428    2.627599   -0.105274
     24          1           0       -1.242657    3.236553    0.770262
 ---------------------------------------------------------------------
                    Distance matrix (angstroms):
                    1          2          3          4          5
     1  C    0.000000
     2  N    1.460350   0.000000
     3  C    2.534875   1.363752   0.000000
     4  N    3.670117   2.263957   1.328840   0.000000
     5  C    3.632172   2.203230   2.105280   1.358839   0.000000
     6  C    2.548416   1.380574   2.174724   2.270390   1.382365
     7  C    3.218050   2.566568   3.594808   3.635685   2.478344
     8  O    3.149069   3.068880   4.327360   4.648338   3.623960
     9  N    4.577617   3.705701   4.444188   4.064702   2.714704
    10  C    5.313580   4.140939   4.462098   3.681507   2.393624
    11  O    6.528629   5.364061   5.624765   4.728798   3.525527
    12  N    4.898183   3.523771   3.452104   2.442659   1.377991
    13  C    6.089251   4.646685   4.197615   2.924484   2.459851
    14  C    5.640772   4.995468   5.858354   5.524991   4.173507
    15  H    1.092139   2.078553   2.634426   3.936480   4.247049
    16  H    1.092107   2.111790   3.239603   4.270375   4.071734
    17  H    1.092107   2.111791   3.239599   4.270373   4.071739
    18  H    2.821928   2.132412   1.081119   2.136471   3.156864
    19  H    6.249413   4.809486   4.191943   2.914506   2.770736
    20  H    6.942021   5.534528   5.220784   3.981451   3.333590
    21  H    6.249402   4.809474   4.191926   2.914487   2.770725
    22  H    6.325118   5.634130   6.421318   5.994890   4.655284
    23  H    6.325142   5.634145   6.421326   5.994888   4.655281
    24  H    5.352862   4.989237   6.044019   5.945007   4.647559
                    6          7          8          9         10
     6  C    0.000000
     7  C    1.437397   0.000000
     8  O    2.378385   1.231413   0.000000
     9  N    2.354919   1.408766   2.315954   0.000000
    10  C    2.793164   2.521105   3.632744   1.409808   0.000000
    11  O    4.016817   3.609592   4.603415   2.287643   1.224282
    12  N    2.411744   2.891524   4.122310   2.390233   1.392024
    13  C    3.741172   4.348775   5.579648   3.738415   2.469167
    14  C    3.713206   2.460720   2.768908   1.460347   2.421126
    15  H    3.395215   4.257139   4.240911   5.578233   6.187693
    16  H    2.892022   3.252246   2.957719   4.617102   5.488052
    17  H    2.892030   3.252261   2.957737   4.617117   5.488062
    18  H    3.206843   4.592930   5.200922   5.513262   5.533258
    19  H    4.079365   4.836058   6.047997   4.364232   3.188841
    20  H    4.476235   4.798603   5.999286   3.892206   2.488834
    21  H    4.079357   4.836057   6.047996   4.364236   3.188849
    22  H    4.339868   3.188377   3.523140   2.110680   2.707730
    23  H    4.339878   3.188394   3.523170   2.110677   2.707707
    24  H    3.873403   2.453300   2.238999   2.062239   3.319597
                   11         12         13         14         15
    11  O    0.000000
    12  N    2.295205   0.000000
    13  C    2.790204   1.457341   0.000000
    14  C    2.660523   3.694661   4.890131   0.000000
    15  H    7.411726   5.593891   6.640727   6.701988   0.000000
    16  H    6.667392   5.235319   6.489863   5.532611   1.781419
    17  H    6.667402   5.235326   6.489867   5.532628   1.781419
    18  H    6.682389   4.469040   5.057004   6.913706   2.473874
    19  H    3.540787   2.105552   1.094242   5.551939   6.700116
    20  H    2.293131   2.064512   1.087855   4.781449   7.576694
    21  H    3.540802   2.105551   1.094242   5.551948   6.700099
[...]
 Largest concise Abelian subgroup C1      NOp   1
                         Standard orientation:                         
 ---------------------------------------------------------------------
 Center     Atomic      Atomic             Coordinates (Angstroms)
 Number     Number       Type             X           Y           Z
 ---------------------------------------------------------------------
      1          6           0       -3.305282   -1.018291    0.000001
      2          7           0       -2.276598    0.013757   -0.000000
      3          6           0       -2.451052    1.359434    0.000000
      4          7           0       -1.313315    2.048712   -0.000000
      5          6           0       -0.356603    1.082211   -0.000001
      6          6           0       -0.904115   -0.185382   -0.000001
      7          6           0       -0.124399   -1.387330   -0.000000
      8          8           0       -0.557889   -2.536452    0.000001
      9          7           0        1.262647   -1.092604   -0.000002
     10          6           0        1.862601    0.182824   -0.000001
     11          8           0        3.079336    0.301903    0.000003
     12          7           0        1.003612    1.282543   -0.000002
     13          6           0        1.553680    2.637013    0.000001
     14          6           0        2.202753   -2.218699   -0.000001
     15          1           0       -4.282534   -0.530989   -0.000007
     16          1           0       -3.206476   -1.649487   -0.885897
     17          1           0       -3.206485   -1.649476    0.885909
     18          1           0       -3.438240    1.802830    0.000001
     19          1           0        1.215813    3.177757    0.888603
     20          1           0        2.638262    2.548425   -0.000012
     21          1           0        1.215792    3.177767   -0.888587
     22          1           0        2.840380   -2.172837    0.885980
     23          1           0        2.840404   -2.172816   -0.885963
     24          1           0        1.611589   -3.132332   -0.000018
 ---------------------------------------------------------------------
 Rotational constants (GHZ):           1.0572001           0.7037400           0.4258846
 Leave Link  202 at Thu Jan 16 16:53:07 2025, MaxMem=  1610612736 cpu:               0.0 elap:               0.0
 (Enter /apl/gaussian/16c02/g16/l601.exe)
 Copying SCF densities to generalized density rwf, IOpCl= 0 IROHF=0.

 **********************************************************************

            Population analysis using the SCF Density.

 **********************************************************************

 Orbital symmetries:
       Occupied  (A) (A) (A) (A) (A) (A) (A) (A) (A) (A) (A) (A)
                 (A) (A) (A) (A) (A) (A) (A) (A) (A) (A) (A) (A)
                 (A) (A) (A) (A) (A) (A) (A) (A) (A) (A) (A) (A)
                 (A) (A) (A) (A) (A) (A) (A) (A) (A) (A) (A) (A)
                 (A) (A) (A)
       Virtual   (A) (A) (A) (A) (A) (A) (A) (A) (A) (A) (A) (A)
                 (A) (A) (A) (A) (A) (A) (A) (A) (A) (A) (A) (A)
                 (A) (A) (A) (A) (A) (A) (A) (A) (A) (A) (A) (A)
                 (A) (A) (A) (A) (A) (A) (A) (A) (A) (A) (A) (A)
                 (A) (A) (A) (A) (A) (A) (A) (A) (A) (A) (A) (A)
                 (A) (A) (A) (A) (A) (A) (A) (A) (A) (A) (A) (A)
                 (A) (A) (A) (A) (A) (A) (A) (A) (A) (A) (A) (A)
                 (A) (A) (A) (A) (A) (A) (A) (A) (A) (A) (A) (A)
                 (A) (A) (A) (A) (A) (A) (A) (A) (A) (A) (A) (A)
                 (A) (A) (A) (A) (A) (A) (A) (A) (A) (A) (A) (A)
                 (A) (A) (A) (A) (A) (A) (A) (A) (A) (A) (A) (A)
                 (A) (A) (A) (A) (A) (A) (A) (A) (A) (A) (A) (A)
                 (A) (A) (A) (A) (A) (A) (A) (A) (A) (A) (A) (A)
                 (A) (A) (A) (A) (A) (A) (A) (A) (A) (A) (A) (A)
                 (A) (A) (A) (A) (A) (A) (A) (A) (A) (A) (A)
 The electronic state is 1-A.
 Alpha  occ. eigenvalues --  -19.12430 -19.11973 -14.41899 -14.39447 -14.38754
 Alpha  occ. eigenvalues --  -14.33683 -10.32653 -10.30532 -10.26830 -10.26450
 Alpha  occ. eigenvalues --  -10.24676 -10.22662 -10.22131 -10.21083  -1.06928
 Alpha  occ. eigenvalues --   -1.04520  -1.03457  -0.96970  -0.93183  -0.90329
 Alpha  occ. eigenvalues --   -0.79321  -0.74005  -0.72990  -0.70886  -0.65396
 Alpha  occ. eigenvalues --   -0.63875  -0.60003  -0.57992  -0.53123  -0.50617
 Alpha  occ. eigenvalues --   -0.50399  -0.47882  -0.47799  -0.45178  -0.45161
 Alpha  occ. eigenvalues --   -0.44919  -0.43490  -0.42841  -0.41926  -0.41890
 Alpha  occ. eigenvalues --   -0.39756  -0.38940  -0.38874  -0.38634  -0.32077
 Alpha  occ. eigenvalues --   -0.30292  -0.28541  -0.28038  -0.26545  -0.25847
 Alpha  occ. eigenvalues --   -0.21958
 Alpha virt. eigenvalues --   -0.03124   0.02370   0.03720   0.08773   0.10903
 Alpha virt. eigenvalues --    0.11901   0.12353   0.12865   0.12968   0.13772
 Alpha virt. eigenvalues --    0.14569   0.16374   0.16646   0.17736   0.17888
 Alpha virt. eigenvalues --    0.18902   0.19408   0.20816   0.21923   0.23451
 Alpha virt. eigenvalues --    0.27083   0.29487   0.30819   0.33231   0.34996
 Alpha virt. eigenvalues --    0.35853   0.38792   0.42163   0.46271   0.46874
 Alpha virt. eigenvalues --    0.47184   0.48384   0.50575   0.50846   0.52650
 Alpha virt. eigenvalues --    0.53851   0.56302   0.56387   0.58971   0.59247
 Alpha virt. eigenvalues --    0.62550   0.63071   0.63172   0.65474   0.66613
 Alpha virt. eigenvalues --    0.66967   0.68309   0.70761   0.71537   0.72030
 Alpha virt. eigenvalues --    0.72584   0.75085   0.77595   0.79047   0.79954
 Alpha virt. eigenvalues --    0.82627   0.83063   0.83820   0.84110   0.84605
 Alpha virt. eigenvalues --    0.85915   0.87212   0.88038   0.88211   0.90162
 Alpha virt. eigenvalues --    0.90498   0.91811   0.93009   0.93798   0.95353
 Alpha virt. eigenvalues --    0.95856   0.97299   1.01626   1.03584   1.05046
 Alpha virt. eigenvalues --    1.07396   1.09428   1.10271   1.17276   1.18748
 Alpha virt. eigenvalues --    1.20262   1.20505   1.24503   1.27816   1.29246
 Alpha virt. eigenvalues --    1.31451   1.31600   1.33575   1.35248   1.36690
 Alpha virt. eigenvalues --    1.38195   1.39529   1.39784   1.43995   1.45640
 Alpha virt. eigenvalues --    1.46780   1.50096   1.52340   1.61092   1.62225
 Alpha virt. eigenvalues --    1.64394   1.72840   1.73430   1.74512   1.76924
 Alpha virt. eigenvalues --    1.78516   1.79342   1.80715   1.83459   1.86590
 Alpha virt. eigenvalues --    1.86795   1.87512   1.89746   1.90859   1.93893
 Alpha virt. eigenvalues --    1.94053   1.94909   1.97971   1.99384   2.02770
 Alpha virt. eigenvalues --    2.05459   2.06406   2.08105   2.08161   2.09474
 Alpha virt. eigenvalues --    2.11766   2.12534   2.18315   2.21451   2.22415
 Alpha virt. eigenvalues --    2.22838   2.25550   2.27452   2.28980   2.29786
 Alpha virt. eigenvalues --    2.29794   2.31527   2.32012   2.33550   2.37048
 Alpha virt. eigenvalues --    2.40574   2.42204   2.43417   2.47005   2.49032
 Alpha virt. eigenvalues --    2.55121   2.56763   2.60838   2.63165   2.66171
 Alpha virt. eigenvalues --    2.67775   2.70286   2.74670   2.75731   2.76108
 Alpha virt. eigenvalues --    2.83007   2.92349   2.93541   2.95587   3.01090
 Alpha virt. eigenvalues --    3.02084   3.06643   3.18321   3.35522   3.48320
 Alpha virt. eigenvalues --    3.97688   4.03252   4.07809   4.11549   4.16603
 Alpha virt. eigenvalues --    4.21292   4.22084   4.27673   4.32876   4.35136
 Alpha virt. eigenvalues --    4.44013   4.60334   4.65583   4.88759
          Condensed to atoms (all electrons):
               1          2          3          4          5          6
     1  C    4.978457   0.276253  -0.037276   0.004417   0.009922  -0.042162
     2  N    0.276253   6.834372   0.400410  -0.071686  -0.058330   0.317477
     3  C   -0.037276   0.400410   4.730467   0.498588  -0.107661  -0.089824
     4  N    0.004417  -0.071686   0.498588   6.836858   0.414673  -0.076946
     5  C    0.009922  -0.058330  -0.107661   0.414673   4.688305   0.443759
     6  C   -0.042162   0.317477  -0.089824  -0.076946   0.443759   5.135471
     7  C   -0.002400  -0.060763   0.005707   0.007507  -0.046811   0.294885
     8  O    0.006587  -0.007738  -0.000203  -0.000054   0.003760  -0.069537
     9  N    0.000172   0.002878  -0.000182  -0.000091  -0.010969  -0.079555
    10  C   -0.000015   0.000291   0.000133   0.000846  -0.028501  -0.014394
    11  O    0.000000  -0.000000   0.000001  -0.000037   0.000461   0.000383
    12  N   -0.000028   0.006050   0.004219  -0.071577   0.248439  -0.055353
    13  C    0.000001  -0.000031   0.000048  -0.001496  -0.034060   0.004934
    14  C    0.000000  -0.000070   0.000003   0.000004   0.000062   0.005502
    15  H    0.366018  -0.034101  -0.002697   0.000133  -0.000165   0.003414
    16  H    0.377971  -0.033402   0.000817  -0.000099  -0.000160  -0.002348
    17  H    0.377971  -0.033402   0.000817  -0.000099  -0.000160  -0.002348
    18  H   -0.000218  -0.054459   0.380464  -0.037822   0.005221   0.004321
    19  H   -0.000000  -0.000004  -0.000025   0.002748  -0.001551   0.000069
    20  H   -0.000000   0.000001   0.000003   0.000307   0.004242  -0.000122
    21  H   -0.000000  -0.000004  -0.000025   0.002748  -0.001551   0.000069
    22  H   -0.000000   0.000001  -0.000000   0.000000   0.000010  -0.000147
    23  H   -0.000000   0.000001  -0.000000   0.000000   0.000010  -0.000147
    24  H   -0.000004   0.000005   0.000000   0.000000  -0.000125   0.001755
               7          8          9         10         11         12
     1  C   -0.002400   0.006587   0.000172  -0.000015   0.000000  -0.000028
     2  N   -0.060763  -0.007738   0.002878   0.000291  -0.000000   0.006050
     3  C    0.005707  -0.000203  -0.000182   0.000133   0.000001   0.004219
     4  N    0.007507  -0.000054  -0.000091   0.000846  -0.000037  -0.071577
     5  C   -0.046811   0.003760  -0.010969  -0.028501   0.000461   0.248439
     6  C    0.294885  -0.069537  -0.079555  -0.014394   0.000383  -0.055353
     7  C    4.453182   0.559084   0.210064  -0.011004   0.000256  -0.019513
     8  O    0.559084   8.124112  -0.090890   0.000510  -0.000023   0.000049
     9  N    0.210064  -0.090890   7.321116   0.249832  -0.096447  -0.092054
    10  C   -0.011004   0.000510   0.249832   4.192993   0.596474   0.292823
    11  O    0.000256  -0.000023  -0.096447   0.596474   8.086325  -0.086566
    12  N   -0.019513   0.000049  -0.092054   0.292823  -0.086566   7.189781
    13  C   -0.000064   0.000003   0.003429  -0.033905  -0.010614   0.286616
    14  C   -0.028794  -0.010943   0.265884  -0.029470   0.004862   0.004144
    15  H    0.000303   0.000252   0.000004   0.000000   0.000000   0.000001
    16  H    0.001636   0.001628   0.000016  -0.000001   0.000000  -0.000003
    17  H    0.001636   0.001627   0.000016  -0.000001   0.000000  -0.000003
    18  H   -0.000095  -0.000000   0.000001   0.000003  -0.000000  -0.000108
    19  H   -0.000003  -0.000000  -0.000054   0.001441   0.000458  -0.039721
    20  H   -0.000012   0.000000   0.000819  -0.000768   0.020939  -0.035562
    21  H   -0.000003  -0.000000  -0.000054   0.001441   0.000458  -0.039721
    22  H    0.001473   0.000425  -0.037398  -0.003362   0.003521  -0.000029
    23  H    0.001473   0.000425  -0.037398  -0.003362   0.003521  -0.000029
    24  H   -0.001495   0.020216  -0.038277   0.004952   0.000782  -0.000022
              13         14         15         16         17         18
     1  C    0.000001   0.000000   0.366018   0.377971   0.377971  -0.000218
     2  N   -0.000031  -0.000070  -0.034101  -0.033402  -0.033402  -0.054459
     3  C    0.000048   0.000003  -0.002697   0.000817   0.000817   0.380464
     4  N   -0.001496   0.000004   0.000133  -0.000099  -0.000099  -0.037822
     5  C   -0.034060   0.000062  -0.000165  -0.000160  -0.000160   0.005221
     6  C    0.004934   0.005502   0.003414  -0.002348  -0.002348   0.004321
     7  C   -0.000064  -0.028794   0.000303   0.001636   0.001636  -0.000095
     8  O    0.000003  -0.010943   0.000252   0.001628   0.001627  -0.000000
     9  N    0.003429   0.265884   0.000004   0.000016   0.000016   0.000001
    10  C   -0.033905  -0.029470   0.000000  -0.000001  -0.000001   0.000003
    11  O   -0.010614   0.004862   0.000000   0.000000   0.000000  -0.000000
    12  N    0.286616   0.004144   0.000001  -0.000003  -0.000003  -0.000108
    13  C    4.982662  -0.000101  -0.000000   0.000000   0.000000  -0.000008
    14  C   -0.000101   4.975751  -0.000000   0.000001   0.000001  -0.000000
    15  H   -0.000000  -0.000000   0.549538  -0.026698  -0.026699   0.004116
    16  H    0.000000   0.000001  -0.026698   0.514513  -0.032875  -0.000045
    17  H    0.000000   0.000001  -0.026699  -0.032875   0.514514  -0.000045
    18  H   -0.000008  -0.000000   0.004116  -0.000045  -0.000045   0.529461
    19  H    0.379969   0.000002  -0.000000  -0.000000   0.000000  -0.000000
    20  H    0.367141  -0.000019   0.000000   0.000000   0.000000  -0.000000
    21  H    0.379969   0.000002  -0.000000   0.000000  -0.000000  -0.000000
    22  H    0.000001   0.381535   0.000000  -0.000000   0.000000   0.000000
    23  H    0.000001   0.381534   0.000000   0.000000  -0.000000   0.000000
    24  H    0.000001   0.364212  -0.000000  -0.000000  -0.000000  -0.000000
              19         20         21         22         23         24
     1  C   -0.000000  -0.000000  -0.000000  -0.000000  -0.000000  -0.000004
     2  N   -0.000004   0.000001  -0.000004   0.000001   0.000001   0.000005
     3  C   -0.000025   0.000003  -0.000025  -0.000000  -0.000000   0.000000
     4  N    0.002748   0.000307   0.002748   0.000000   0.000000   0.000000
     5  C   -0.001551   0.004242  -0.001551   0.000010   0.000010  -0.000125
     6  C    0.000069  -0.000122   0.000069  -0.000147  -0.000147   0.001755
     7  C   -0.000003  -0.000012  -0.000003   0.001473   0.001473  -0.001495
     8  O   -0.000000   0.000000  -0.000000   0.000425   0.000425   0.020216
     9  N   -0.000054   0.000819  -0.000054  -0.037398  -0.037398  -0.038277
    10  C    0.001441  -0.000768   0.001441  -0.003362  -0.003362   0.004952
    11  O    0.000458   0.020939   0.000458   0.003521   0.003521   0.000782
    12  N   -0.039721  -0.035562  -0.039721  -0.000029  -0.000029  -0.000022
    13  C    0.379969   0.367141   0.379969   0.000001   0.000001   0.000001
    14  C    0.000002  -0.000019   0.000002   0.381535   0.381534   0.364212
    15  H   -0.000000   0.000000  -0.000000   0.000000   0.000000  -0.000000
    16  H   -0.000000   0.000000   0.000000  -0.000000   0.000000  -0.000000
    17  H    0.000000   0.000000  -0.000000   0.000000  -0.000000  -0.000000
    18  H   -0.000000  -0.000000  -0.000000   0.000000   0.000000  -0.000000
    19  H    0.538927  -0.023397  -0.036624  -0.000000   0.000000  -0.000000
    20  H   -0.023397   0.483422  -0.023397  -0.000000  -0.000000  -0.000000
    21  H   -0.036624  -0.023397   0.538926   0.000000  -0.000000  -0.000000
    22  H   -0.000000  -0.000000   0.000000   0.536317  -0.034852  -0.024865
    23  H    0.000000  -0.000000  -0.000000  -0.034852   0.536316  -0.024865
    24  H   -0.000000  -0.000000  -0.000000  -0.024865  -0.024865   0.499658
 Mulliken charges:
               1
     1  C   -0.315667
     2  N   -0.483750
     3  C    0.216219
     4  N   -0.508920
     5  C    0.471180
     6  C    0.220843
     7  C    0.633751
     8  O   -0.539292
     9  N   -0.570867
    10  C    0.783044
    11  O   -0.524754
    12  N   -0.591834
    13  C   -0.324495
    14  C   -0.314102
    15  H    0.166581
    16  H    0.199050
    17  H    0.199049
    18  H    0.169213
    19  H    0.177767
    20  H    0.206404
    21  H    0.177767
    22  H    0.177370
    23  H    0.177371
    24  H    0.198073
 Sum of Mulliken charges =  -0.00000
 Mulliken charges with hydrogens summed into heavy atoms:
               1
     1  C    0.249014
     2  N   -0.483750
     3  C    0.385431
     4  N   -0.508920
     5  C    0.471180
     6  C    0.220843
     7  C    0.633751
     8  O   -0.539292
     9  N   -0.570867
    10  C    0.783044
    11  O   -0.524754
    12  N   -0.591834
    13  C    0.237443
    14  C    0.238711
 Electronic spatial extent (au):  <R**2>=           2549.9114
 Charge=             -0.0000 electrons
 Dipole moment (field-independent basis, Debye):
    X=             -3.7258    Y=              0.7249    Z=             -0.0000  Tot=              3.7957
 Quadrupole moment (field-independent basis, Debye-Ang):
   XX=            -73.1372   YY=            -84.7068   ZZ=            -79.2172
   XY=             -0.5176   XZ=             -0.0000   YZ=              0.0000
 Traceless Quadrupole moment (field-independent basis, Debye-Ang):
   XX=              5.8832   YY=             -5.6864   ZZ=             -0.1968
   XY=             -0.5176   XZ=             -0.0000   YZ=              0.0000
 Octapole moment (field-independent basis, Debye-Ang**2):
  XXX=            -89.8450  YYY=              9.8610  ZZZ=              0.0001  XYY=             27.4311
  XXY=            -11.1356  XXZ=             -0.0001  XZZ=              4.5218  YZZ=             -3.9292
  YYZ=             -0.0001  XYZ=             -0.0000
 Hexadecapole moment (field-independent basis, Debye-Ang**3):
 XXXX=          -1809.6908 YYYY=          -1350.5925 ZZZZ=            -91.2436 XXXY=            -22.1892
 XXXZ=             -0.0005 YYYX=             18.6930 YYYZ=              0.0001 ZZZX=              0.0001
 ZZZY=             -0.0000 XXYY=           -472.0937 XXZZ=           -327.4317 YYZZ=           -225.2217
 XXYZ=             -0.0001 YYXZ=              0.0001 ZZXY=              6.7242
 N-N= 9.272194900886D+02 E-N=-3.439238836647D+03  KE= 6.741521704451D+02
 No NMR shielding tensors so no spin-rotation constants.
 Leave Link  601 at Thu Jan 16 16:53:07 2025, MaxMem=  1610612736 cpu:               0.5 elap:               0.1
 (Enter /apl/gaussian/16c02/g16/l9999.exe)
 Unable to Open any file for archive entry.
 1\1\GINC-CCG010\FOpt\RB3LYP\6-31G(d)\C8H10N4O2\ROOT\16-Jan-2025\0\\#P 
 B3LYP/6-31G(d) Opt\\caffeine\\0,1\C,3.3095992018,0.6124015307,-0.22905
 14399\N,2.153850334,-0.2734785435,-0.2817228026\C,2.1399478748,-1.6049
 350964,-0.5430828166\N,0.9240902241,-2.1441486911,-0.520965505\C,0.115
 10017,-1.091120077,-0.2275590866\C,0.8293883479,0.0802498829,-0.071854
 9827\C,0.2272456635,1.3420918138,0.2409013438\O,0.8128657472,2.4112968
 794,0.3900431799\N,-1.1797299207,1.2163176515,0.3648385646\C,-1.946757
 4024,0.0434147457,0.2144092809\O,-3.1617250173,0.0689653878,0.34792202
 02\N,-1.2524170231,-1.1280435418,-0.090253967\C,-1.9812151322,-2.38376
 57389,-0.2610720439\C,-1.9503333988,2.4229138595,0.6845023496\H,4.2049
 662997,0.0238913547,-0.4399037477\H,3.2079898765,1.4095536692,-0.96878
 90628\H,3.3908122425,1.0682392235,0.7601929462\H,3.0511629325,-2.15182
 31199,-0.7473857998\H,-1.6313567466,-3.1211228511,0.4669910454\H,-3.03
 73428742,-2.1712488278,-0.1074640135\H,-1.8147078293,-2.7787953199,-1.
 2672523587\H,-2.4933360979,2.2817541909,1.6219756119\H,-2.6761914255,2
 .6230655387,-0.1071432321\H,-1.2419050463,3.2443290793,0.7717265165\\V
 ersion=ES64L-G16RevC.02\State=1-A\HF=-680.3767685\RMSD=7.910e-09\RMSF=
 1.124e-04\Dipole=1.404544,-0.4484467,-0.237036\Quadrupole=4.0573581,-3
 .8725262,-0.1848319,-1.4301844,-0.7267724,-0.5843404\PG=C01 [X(C8H10N4
 O2)]\\@
 The archive entry for this job was punched.


  THE LARGE PRINT GIVETH,
  AND THE SMALL PRINT TAKETH AWAY.

                     -- TOM WAITS
 Job cpu time:       0 days  0 hours  8 minutes 37.8 seconds.
 Elapsed time:       0 days  0 hours  0 minutes 57.6 seconds.
 File lengths (MBytes):  RWF=     39 Int=      0 D2E=      0 Chk=      5 Scr=      1
 Normal termination of Gaussian 16 at Thu Jan 16 16:53:07 2025.
